
     Program PWSCF v.7.3.1 starts on 29May2025 at 15: 3:27 

     This program is part of the open-source Quantum ESPRESSO suite
     for quantum simulation of materials; please cite
         "P. Giannozzi et al., J. Phys.:Condens. Matter 21 395502 (2009);
         "P. Giannozzi et al., J. Phys.:Condens. Matter 29 465901 (2017);
         "P. Giannozzi et al., J. Chem. Phys. 152 154105 (2020);
          URL http://www.quantum-espresso.org", 
     in publications or presentations arising from this work. More details at
     http://www.quantum-espresso.org/quote

     Parallel version (MPI & OpenMP), running on     128 processor cores
     Number of MPI processes:               128
     Threads/MPI process:                     1

     MPI processes distributed on     1 nodes
     472794 MiB available memory on the printing compute node when the environment starts

     Waiting for input...
     Reading input from standard input

     Current dimensions of program PWSCF are:
     Max number of different atomic species (ntypx) = 10
     Max number of k-points (npk) =  40000
     Max angular momentum in pseudopotentials (lmaxx) =  4
     Message from routine setup:
     using ibrav=0 with symmetry is DISCOURAGED, use correct ibrav instead

     K-points division:     npool     =       8
     R & G space division:  proc/nbgrp/npool/nimage =      16
     Subspace diagonalization in iterative solution of the eigenvalue problem:
     one sub-group per band group will be used
     ELPA distributed-memory algorithm (size of sub-group:  4*  4 procs)


     Parallelization info
     --------------------
     sticks:   dense  smooth     PW     G-vecs:    dense   smooth      PW
     Min        1420     473    126               161001    30976    4292
     Max        1422     475    127               161002    30980    4295
     Sum       22725    7589   2025              2576031   495639   68699

     Using Slab Decomposition



     bravais-lattice index     =            0
     lattice parameter (alat)  =      16.2598  a.u.
     unit-cell volume          =    4298.7603 (a.u.)^3
     number of atoms/cell      =           53
     number of atomic types    =            1
     number of electrons       =       848.00
     number of Kohn-Sham states=          509
     kinetic-energy cutoff     =      90.0000  Ry
     charge density cutoff     =    1080.0000  Ry
     scf convergence threshold =      1.0E-08
     mixing beta               =       0.2000
     number of iterations used =            8  plain     mixing
     Exchange-correlation= PBE
                           (   1   4   3   4   0   0   0)

     celldm(1)=  16.259770  celldm(2)=   0.000000  celldm(3)=   0.000000
     celldm(4)=   0.000000  celldm(5)=   0.000000  celldm(6)=   0.000000

     crystal axes: (cart. coord. in units of alat)
               a(1) = (   1.000000   0.000000   0.000000 )  
               a(2) = (   0.000000   1.000000   0.000000 )  
               a(3) = (   0.000000   0.000000   1.000000 )  

     reciprocal axes: (cart. coord. in units 2 pi/alat)
               b(1) = (  1.000000  0.000000  0.000000 )  
               b(2) = (  0.000000  1.000000  0.000000 )  
               b(3) = (  0.000000  0.000000  1.000000 )  


     PseudoPot. # 1 for Fe read from file:
     ./pseudo/Fe.pbe-spn-rrkjus_psl.0.2.1.UPF
     MD5 check sum: f9af58635850a145d9bd408d58feeb93
     Pseudo is Ultrasoft + core correction, Zval = 16.0
     Generated using "atomic" code by A. Dal Corso  v.5.0.2 svn rev. 9415
     Using radial grid of 1191 points,  6 beta functions with: 
                l(1) =   0
                l(2) =   0
                l(3) =   1
                l(4) =   1
                l(5) =   2
                l(6) =   2
     Q(r) pseudized with 0 coefficients 


     atomic species   valence    mass     pseudopotential
     Fe               16.00    55.84500     Fe( 1.00)

     Starting magnetic structure 
     atomic species   magnetization
     Fe              0.400

     48 Sym. Ops., with inversion, found (42 have fractional translation)


                                    s                        frac. trans.

      isym =  1     identity                                     

 cryst.   s( 1) = (     1          0          0      )
                  (     0          1          0      )
                  (     0          0          1      )

 cart.    s( 1) = (  1.0000000  0.0000000  0.0000000 )
                  (  0.0000000  1.0000000  0.0000000 )
                  (  0.0000000  0.0000000  1.0000000 )


      isym =  2     180 deg rotation - cart. axis [0,0,1]        

 cryst.   s( 2) = (    -1          0          0      )    f =(  0.3333333 )
                  (     0         -1          0      )       (  0.3333333 )
                  (     0          0          1      )       (  0.0000000 )

 cart.    s( 2) = ( -1.0000000  0.0000000  0.0000000 )    f =(  0.3333333 )
                  (  0.0000000 -1.0000000  0.0000000 )       (  0.3333333 )
                  (  0.0000000  0.0000000  1.0000000 )       (  0.0000000 )


      isym =  3     180 deg rotation - cart. axis [0,1,0]        

 cryst.   s( 3) = (    -1          0          0      )    f =(  0.3333333 )
                  (     0          1          0      )       (  0.0000000 )
                  (     0          0         -1      )       (  0.3333333 )

 cart.    s( 3) = ( -1.0000000  0.0000000  0.0000000 )    f =(  0.3333333 )
                  (  0.0000000  1.0000000  0.0000000 )       (  0.0000000 )
                  (  0.0000000  0.0000000 -1.0000000 )       (  0.3333333 )


      isym =  4     180 deg rotation - cart. axis [1,0,0]        

 cryst.   s( 4) = (     1          0          0      )    f =(  0.0000000 )
                  (     0         -1          0      )       (  0.3333333 )
                  (     0          0         -1      )       (  0.3333333 )

 cart.    s( 4) = (  1.0000000  0.0000000  0.0000000 )    f =(  0.0000000 )
                  (  0.0000000 -1.0000000  0.0000000 )       (  0.3333333 )
                  (  0.0000000  0.0000000 -1.0000000 )       (  0.3333333 )


      isym =  5     180 deg rotation - cart. axis [1,1,0]        

 cryst.   s( 5) = (     0          1          0      )    f =(  0.0000000 )
                  (     1          0          0      )       (  0.0000000 )
                  (     0          0         -1      )       (  0.3333333 )

 cart.    s( 5) = (  0.0000000  1.0000000  0.0000000 )    f =(  0.0000000 )
                  (  1.0000000  0.0000000  0.0000000 )       (  0.0000000 )
                  (  0.0000000  0.0000000 -1.0000000 )       (  0.3333333 )


      isym =  6     180 deg rotation - cart. axis [1,-1,0]       

 cryst.   s( 6) = (     0         -1          0      )    f =(  0.3333333 )
                  (    -1          0          0      )       (  0.3333333 )
                  (     0          0         -1      )       (  0.3333333 )

 cart.    s( 6) = (  0.0000000 -1.0000000  0.0000000 )    f =(  0.3333333 )
                  ( -1.0000000  0.0000000  0.0000000 )       (  0.3333333 )
                  (  0.0000000  0.0000000 -1.0000000 )       (  0.3333333 )


      isym =  7      90 deg rotation - cart. axis [0,0,-1]       

 cryst.   s( 7) = (     0         -1          0      )    f =(  0.0000000 )
                  (     1          0          0      )       (  0.3333333 )
                  (     0          0          1      )       (  0.0000000 )

 cart.    s( 7) = (  0.0000000  1.0000000  0.0000000 )    f =(  0.0000000 )
                  ( -1.0000000  0.0000000  0.0000000 )       (  0.3333333 )
                  (  0.0000000  0.0000000  1.0000000 )       (  0.0000000 )


      isym =  8      90 deg rotation - cart. axis [0,0,1]        

 cryst.   s( 8) = (     0          1          0      )    f =(  0.3333333 )
                  (    -1          0          0      )       (  0.0000000 )
                  (     0          0          1      )       (  0.0000000 )

 cart.    s( 8) = (  0.0000000 -1.0000000  0.0000000 )    f =(  0.3333333 )
                  (  1.0000000  0.0000000  0.0000000 )       (  0.0000000 )
                  (  0.0000000  0.0000000  1.0000000 )       (  0.0000000 )


      isym =  9     180 deg rotation - cart. axis [1,0,1]        

 cryst.   s( 9) = (     0          0          1      )    f =(  0.0000000 )
                  (     0         -1          0      )       (  0.3333333 )
                  (     1          0          0      )       (  0.0000000 )

 cart.    s( 9) = (  0.0000000  0.0000000  1.0000000 )    f =(  0.0000000 )
                  (  0.0000000 -1.0000000  0.0000000 )       (  0.3333333 )
                  (  1.0000000  0.0000000  0.0000000 )       (  0.0000000 )


      isym = 10     180 deg rotation - cart. axis [-1,0,1]       

 cryst.   s(10) = (     0          0         -1      )    f =(  0.3333333 )
                  (     0         -1          0      )       (  0.3333333 )
                  (    -1          0          0      )       (  0.3333333 )

 cart.    s(10) = (  0.0000000  0.0000000 -1.0000000 )    f =(  0.3333333 )
                  (  0.0000000 -1.0000000  0.0000000 )       (  0.3333333 )
                  ( -1.0000000  0.0000000  0.0000000 )       (  0.3333333 )


      isym = 11      90 deg rotation - cart. axis [0,1,0]        

 cryst.   s(11) = (     0          0         -1      )    f =(  0.0000000 )
                  (     0          1          0      )       (  0.0000000 )
                  (     1          0          0      )       (  0.3333333 )

 cart.    s(11) = (  0.0000000  0.0000000  1.0000000 )    f =(  0.0000000 )
                  (  0.0000000  1.0000000  0.0000000 )       (  0.0000000 )
                  ( -1.0000000  0.0000000  0.0000000 )       (  0.3333333 )


      isym = 12      90 deg rotation - cart. axis [0,-1,0]       

 cryst.   s(12) = (     0          0          1      )    f =(  0.3333333 )
                  (     0          1          0      )       (  0.0000000 )
                  (    -1          0          0      )       (  0.0000000 )

 cart.    s(12) = (  0.0000000  0.0000000 -1.0000000 )    f =(  0.3333333 )
                  (  0.0000000  1.0000000  0.0000000 )       (  0.0000000 )
                  (  1.0000000  0.0000000  0.0000000 )       (  0.0000000 )


      isym = 13     180 deg rotation - cart. axis [0,1,1]        

 cryst.   s(13) = (    -1          0          0      )    f =(  0.3333333 )
                  (     0          0          1      )       (  0.0000000 )
                  (     0          1          0      )       (  0.0000000 )

 cart.    s(13) = ( -1.0000000  0.0000000  0.0000000 )    f =(  0.3333333 )
                  (  0.0000000  0.0000000  1.0000000 )       (  0.0000000 )
                  (  0.0000000  1.0000000  0.0000000 )       (  0.0000000 )


      isym = 14     180 deg rotation - cart. axis [0,1,-1]       

 cryst.   s(14) = (    -1          0          0      )    f =(  0.3333333 )
                  (     0          0         -1      )       (  0.3333333 )
                  (     0         -1          0      )       (  0.3333333 )

 cart.    s(14) = ( -1.0000000  0.0000000  0.0000000 )    f =(  0.3333333 )
                  (  0.0000000  0.0000000 -1.0000000 )       (  0.3333333 )
                  (  0.0000000 -1.0000000  0.0000000 )       (  0.3333333 )


      isym = 15      90 deg rotation - cart. axis [-1,0,0]       

 cryst.   s(15) = (     1          0          0      )    f =(  0.0000000 )
                  (     0          0         -1      )       (  0.0000000 )
                  (     0          1          0      )       (  0.3333333 )

 cart.    s(15) = (  1.0000000  0.0000000  0.0000000 )    f =(  0.0000000 )
                  (  0.0000000  0.0000000  1.0000000 )       (  0.0000000 )
                  (  0.0000000 -1.0000000  0.0000000 )       (  0.3333333 )


      isym = 16      90 deg rotation - cart. axis [1,0,0]        

 cryst.   s(16) = (     1          0          0      )    f =(  0.0000000 )
                  (     0          0          1      )       (  0.3333333 )
                  (     0         -1          0      )       (  0.0000000 )

 cart.    s(16) = (  1.0000000  0.0000000  0.0000000 )    f =(  0.0000000 )
                  (  0.0000000  0.0000000 -1.0000000 )       (  0.3333333 )
                  (  0.0000000  1.0000000  0.0000000 )       (  0.0000000 )


      isym = 17     120 deg rotation - cart. axis [-1,-1,-1]     

 cryst.   s(17) = (     0          0          1      )
                  (     1          0          0      )
                  (     0          1          0      )

 cart.    s(17) = (  0.0000000  1.0000000  0.0000000 )
                  (  0.0000000  0.0000000  1.0000000 )
                  (  1.0000000  0.0000000  0.0000000 )


      isym = 18     120 deg rotation - cart. axis [-1,1,1]       

 cryst.   s(18) = (     0          0         -1      )    f =(  0.3333333 )
                  (    -1          0          0      )       (  0.0000000 )
                  (     0          1          0      )       (  0.3333333 )

 cart.    s(18) = (  0.0000000 -1.0000000  0.0000000 )    f =(  0.3333333 )
                  (  0.0000000  0.0000000  1.0000000 )       (  0.0000000 )
                  ( -1.0000000  0.0000000  0.0000000 )       (  0.3333333 )


      isym = 19     120 deg rotation - cart. axis [1,1,-1]       

 cryst.   s(19) = (     0          0         -1      )    f =(  0.0000000 )
                  (     1          0          0      )       (  0.3333333 )
                  (     0         -1          0      )       (  0.3333333 )

 cart.    s(19) = (  0.0000000  1.0000000  0.0000000 )    f =(  0.0000000 )
                  (  0.0000000  0.0000000 -1.0000000 )       (  0.3333333 )
                  ( -1.0000000  0.0000000  0.0000000 )       (  0.3333333 )


      isym = 20     120 deg rotation - cart. axis [1,-1,1]       

 cryst.   s(20) = (     0          0          1      )    f =(  0.3333333 )
                  (    -1          0          0      )       (  0.3333333 )
                  (     0         -1          0      )       (  0.0000000 )

 cart.    s(20) = (  0.0000000 -1.0000000  0.0000000 )    f =(  0.3333333 )
                  (  0.0000000  0.0000000 -1.0000000 )       (  0.3333333 )
                  (  1.0000000  0.0000000  0.0000000 )       (  0.0000000 )


      isym = 21     120 deg rotation - cart. axis [1,1,1]        

 cryst.   s(21) = (     0          1          0      )
                  (     0          0          1      )
                  (     1          0          0      )

 cart.    s(21) = (  0.0000000  0.0000000  1.0000000 )
                  (  1.0000000  0.0000000  0.0000000 )
                  (  0.0000000  1.0000000  0.0000000 )


      isym = 22     120 deg rotation - cart. axis [-1,1,-1]      

 cryst.   s(22) = (     0         -1          0      )    f =(  0.0000000 )
                  (     0          0         -1      )       (  0.3333333 )
                  (     1          0          0      )       (  0.3333333 )

 cart.    s(22) = (  0.0000000  0.0000000  1.0000000 )    f =(  0.0000000 )
                  ( -1.0000000  0.0000000  0.0000000 )       (  0.3333333 )
                  (  0.0000000 -1.0000000  0.0000000 )       (  0.3333333 )


      isym = 23     120 deg rotation - cart. axis [1,-1,-1]      

 cryst.   s(23) = (     0         -1          0      )    f =(  0.3333333 )
                  (     0          0          1      )       (  0.3333333 )
                  (    -1          0          0      )       (  0.0000000 )

 cart.    s(23) = (  0.0000000  0.0000000 -1.0000000 )    f =(  0.3333333 )
                  ( -1.0000000  0.0000000  0.0000000 )       (  0.3333333 )
                  (  0.0000000  1.0000000  0.0000000 )       (  0.0000000 )


      isym = 24     120 deg rotation - cart. axis [-1,-1,1]      

 cryst.   s(24) = (     0          1          0      )    f =(  0.3333333 )
                  (     0          0         -1      )       (  0.0000000 )
                  (    -1          0          0      )       (  0.3333333 )

 cart.    s(24) = (  0.0000000  0.0000000 -1.0000000 )    f =(  0.3333333 )
                  (  1.0000000  0.0000000  0.0000000 )       (  0.0000000 )
                  (  0.0000000 -1.0000000  0.0000000 )       (  0.3333333 )


      isym = 25     inversion                                    

 cryst.   s(25) = (    -1          0          0      )    f =(  0.3333333 )
                  (     0         -1          0      )       (  0.3333333 )
                  (     0          0         -1      )       (  0.3333333 )

 cart.    s(25) = ( -1.0000000  0.0000000  0.0000000 )    f =(  0.3333333 )
                  (  0.0000000 -1.0000000  0.0000000 )       (  0.3333333 )
                  (  0.0000000  0.0000000 -1.0000000 )       (  0.3333333 )


      isym = 26     inv. 180 deg rotation - cart. axis [0,0,1]   

 cryst.   s(26) = (     1          0          0      )    f =(  0.0000000 )
                  (     0          1          0      )       (  0.0000000 )
                  (     0          0         -1      )       (  0.3333333 )

 cart.    s(26) = (  1.0000000  0.0000000  0.0000000 )    f =(  0.0000000 )
                  (  0.0000000  1.0000000  0.0000000 )       (  0.0000000 )
                  (  0.0000000  0.0000000 -1.0000000 )       (  0.3333333 )


      isym = 27     inv. 180 deg rotation - cart. axis [0,1,0]   

 cryst.   s(27) = (     1          0          0      )    f =(  0.0000000 )
                  (     0         -1          0      )       (  0.3333333 )
                  (     0          0          1      )       (  0.0000000 )

 cart.    s(27) = (  1.0000000  0.0000000  0.0000000 )    f =(  0.0000000 )
                  (  0.0000000 -1.0000000  0.0000000 )       (  0.3333333 )
                  (  0.0000000  0.0000000  1.0000000 )       (  0.0000000 )


      isym = 28     inv. 180 deg rotation - cart. axis [1,0,0]   

 cryst.   s(28) = (    -1          0          0      )    f =(  0.3333333 )
                  (     0          1          0      )       (  0.0000000 )
                  (     0          0          1      )       (  0.0000000 )

 cart.    s(28) = ( -1.0000000  0.0000000  0.0000000 )    f =(  0.3333333 )
                  (  0.0000000  1.0000000  0.0000000 )       (  0.0000000 )
                  (  0.0000000  0.0000000  1.0000000 )       (  0.0000000 )


      isym = 29     inv. 180 deg rotation - cart. axis [1,1,0]   

 cryst.   s(29) = (     0         -1          0      )    f =(  0.3333333 )
                  (    -1          0          0      )       (  0.3333333 )
                  (     0          0          1      )       (  0.0000000 )

 cart.    s(29) = (  0.0000000 -1.0000000  0.0000000 )    f =(  0.3333333 )
                  ( -1.0000000  0.0000000  0.0000000 )       (  0.3333333 )
                  (  0.0000000  0.0000000  1.0000000 )       (  0.0000000 )


      isym = 30     inv. 180 deg rotation - cart. axis [1,-1,0]  

 cryst.   s(30) = (     0          1          0      )
                  (     1          0          0      )
                  (     0          0          1      )

 cart.    s(30) = (  0.0000000  1.0000000  0.0000000 )
                  (  1.0000000  0.0000000  0.0000000 )
                  (  0.0000000  0.0000000  1.0000000 )


      isym = 31     inv.  90 deg rotation - cart. axis [0,0,-1]  

 cryst.   s(31) = (     0          1          0      )    f =(  0.3333333 )
                  (    -1          0          0      )       (  0.0000000 )
                  (     0          0         -1      )       (  0.3333333 )

 cart.    s(31) = (  0.0000000 -1.0000000  0.0000000 )    f =(  0.3333333 )
                  (  1.0000000  0.0000000  0.0000000 )       (  0.0000000 )
                  (  0.0000000  0.0000000 -1.0000000 )       (  0.3333333 )


      isym = 32     inv.  90 deg rotation - cart. axis [0,0,1]   

 cryst.   s(32) = (     0         -1          0      )    f =(  0.0000000 )
                  (     1          0          0      )       (  0.3333333 )
                  (     0          0         -1      )       (  0.3333333 )

 cart.    s(32) = (  0.0000000  1.0000000  0.0000000 )    f =(  0.0000000 )
                  ( -1.0000000  0.0000000  0.0000000 )       (  0.3333333 )
                  (  0.0000000  0.0000000 -1.0000000 )       (  0.3333333 )


      isym = 33     inv. 180 deg rotation - cart. axis [1,0,1]   

 cryst.   s(33) = (     0          0         -1      )    f =(  0.3333333 )
                  (     0          1          0      )       (  0.0000000 )
                  (    -1          0          0      )       (  0.3333333 )

 cart.    s(33) = (  0.0000000  0.0000000 -1.0000000 )    f =(  0.3333333 )
                  (  0.0000000  1.0000000  0.0000000 )       (  0.0000000 )
                  ( -1.0000000  0.0000000  0.0000000 )       (  0.3333333 )


      isym = 34     inv. 180 deg rotation - cart. axis [-1,0,1]  

 cryst.   s(34) = (     0          0          1      )
                  (     0          1          0      )
                  (     1          0          0      )

 cart.    s(34) = (  0.0000000  0.0000000  1.0000000 )
                  (  0.0000000  1.0000000  0.0000000 )
                  (  1.0000000  0.0000000  0.0000000 )


      isym = 35     inv.  90 deg rotation - cart. axis [0,1,0]   

 cryst.   s(35) = (     0          0          1      )    f =(  0.3333333 )
                  (     0         -1          0      )       (  0.3333333 )
                  (    -1          0          0      )       (  0.0000000 )

 cart.    s(35) = (  0.0000000  0.0000000 -1.0000000 )    f =(  0.3333333 )
                  (  0.0000000 -1.0000000  0.0000000 )       (  0.3333333 )
                  (  1.0000000  0.0000000  0.0000000 )       (  0.0000000 )


      isym = 36     inv.  90 deg rotation - cart. axis [0,-1,0]  

 cryst.   s(36) = (     0          0         -1      )    f =(  0.0000000 )
                  (     0         -1          0      )       (  0.3333333 )
                  (     1          0          0      )       (  0.3333333 )

 cart.    s(36) = (  0.0000000  0.0000000  1.0000000 )    f =(  0.0000000 )
                  (  0.0000000 -1.0000000  0.0000000 )       (  0.3333333 )
                  ( -1.0000000  0.0000000  0.0000000 )       (  0.3333333 )


      isym = 37     inv. 180 deg rotation - cart. axis [0,1,1]   

 cryst.   s(37) = (     1          0          0      )    f =(  0.0000000 )
                  (     0          0         -1      )       (  0.3333333 )
                  (     0         -1          0      )       (  0.3333333 )

 cart.    s(37) = (  1.0000000  0.0000000  0.0000000 )    f =(  0.0000000 )
                  (  0.0000000  0.0000000 -1.0000000 )       (  0.3333333 )
                  (  0.0000000 -1.0000000  0.0000000 )       (  0.3333333 )


      isym = 38     inv. 180 deg rotation - cart. axis [0,1,-1]  

 cryst.   s(38) = (     1          0          0      )
                  (     0          0          1      )
                  (     0          1          0      )

 cart.    s(38) = (  1.0000000  0.0000000  0.0000000 )
                  (  0.0000000  0.0000000  1.0000000 )
                  (  0.0000000  1.0000000  0.0000000 )


      isym = 39     inv.  90 deg rotation - cart. axis [-1,0,0]  

 cryst.   s(39) = (    -1          0          0      )    f =(  0.3333333 )
                  (     0          0          1      )       (  0.3333333 )
                  (     0         -1          0      )       (  0.0000000 )

 cart.    s(39) = ( -1.0000000  0.0000000  0.0000000 )    f =(  0.3333333 )
                  (  0.0000000  0.0000000 -1.0000000 )       (  0.3333333 )
                  (  0.0000000  1.0000000  0.0000000 )       (  0.0000000 )


      isym = 40     inv.  90 deg rotation - cart. axis [1,0,0]   

 cryst.   s(40) = (    -1          0          0      )    f =(  0.3333333 )
                  (     0          0         -1      )       (  0.0000000 )
                  (     0          1          0      )       (  0.3333333 )

 cart.    s(40) = ( -1.0000000  0.0000000  0.0000000 )    f =(  0.3333333 )
                  (  0.0000000  0.0000000  1.0000000 )       (  0.0000000 )
                  (  0.0000000 -1.0000000  0.0000000 )       (  0.3333333 )


      isym = 41     inv. 120 deg rotation - cart. axis [-1,-1,-1]

 cryst.   s(41) = (     0          0         -1      )    f =(  0.3333333 )
                  (    -1          0          0      )       (  0.3333333 )
                  (     0         -1          0      )       (  0.3333333 )

 cart.    s(41) = (  0.0000000 -1.0000000  0.0000000 )    f =(  0.3333333 )
                  (  0.0000000  0.0000000 -1.0000000 )       (  0.3333333 )
                  ( -1.0000000  0.0000000  0.0000000 )       (  0.3333333 )


      isym = 42     inv. 120 deg rotation - cart. axis [-1,1,1]  

 cryst.   s(42) = (     0          0          1      )    f =(  0.0000000 )
                  (     1          0          0      )       (  0.3333333 )
                  (     0         -1          0      )       (  0.0000000 )

 cart.    s(42) = (  0.0000000  1.0000000  0.0000000 )    f =(  0.0000000 )
                  (  0.0000000  0.0000000 -1.0000000 )       (  0.3333333 )
                  (  1.0000000  0.0000000  0.0000000 )       (  0.0000000 )


      isym = 43     inv. 120 deg rotation - cart. axis [1,1,-1]  

 cryst.   s(43) = (     0          0          1      )    f =(  0.3333333 )
                  (    -1          0          0      )       (  0.0000000 )
                  (     0          1          0      )       (  0.0000000 )

 cart.    s(43) = (  0.0000000 -1.0000000  0.0000000 )    f =(  0.3333333 )
                  (  0.0000000  0.0000000  1.0000000 )       (  0.0000000 )
                  (  1.0000000  0.0000000  0.0000000 )       (  0.0000000 )


      isym = 44     inv. 120 deg rotation - cart. axis [1,-1,1]  

 cryst.   s(44) = (     0          0         -1      )    f =(  0.0000000 )
                  (     1          0          0      )       (  0.0000000 )
                  (     0          1          0      )       (  0.3333333 )

 cart.    s(44) = (  0.0000000  1.0000000  0.0000000 )    f =(  0.0000000 )
                  (  0.0000000  0.0000000  1.0000000 )       (  0.0000000 )
                  ( -1.0000000  0.0000000  0.0000000 )       (  0.3333333 )


      isym = 45     inv. 120 deg rotation - cart. axis [1,1,1]   

 cryst.   s(45) = (     0         -1          0      )    f =(  0.3333333 )
                  (     0          0         -1      )       (  0.3333333 )
                  (    -1          0          0      )       (  0.3333333 )

 cart.    s(45) = (  0.0000000  0.0000000 -1.0000000 )    f =(  0.3333333 )
                  ( -1.0000000  0.0000000  0.0000000 )       (  0.3333333 )
                  (  0.0000000 -1.0000000  0.0000000 )       (  0.3333333 )


      isym = 46     inv. 120 deg rotation - cart. axis [-1,1,-1] 

 cryst.   s(46) = (     0          1          0      )    f =(  0.3333333 )
                  (     0          0          1      )       (  0.0000000 )
                  (    -1          0          0      )       (  0.0000000 )

 cart.    s(46) = (  0.0000000  0.0000000 -1.0000000 )    f =(  0.3333333 )
                  (  1.0000000  0.0000000  0.0000000 )       (  0.0000000 )
                  (  0.0000000  1.0000000  0.0000000 )       (  0.0000000 )


      isym = 47     inv. 120 deg rotation - cart. axis [1,-1,-1] 

 cryst.   s(47) = (     0          1          0      )    f =(  0.0000000 )
                  (     0          0         -1      )       (  0.0000000 )
                  (     1          0          0      )       (  0.3333333 )

 cart.    s(47) = (  0.0000000  0.0000000  1.0000000 )    f =(  0.0000000 )
                  (  1.0000000  0.0000000  0.0000000 )       (  0.0000000 )
                  (  0.0000000 -1.0000000  0.0000000 )       (  0.3333333 )


      isym = 48     inv. 120 deg rotation - cart. axis [-1,-1,1] 

 cryst.   s(48) = (     0         -1          0      )    f =(  0.0000000 )
                  (     0          0          1      )       (  0.3333333 )
                  (     1          0          0      )       (  0.0000000 )

 cart.    s(48) = (  0.0000000  0.0000000  1.0000000 )    f =(  0.0000000 )
                  ( -1.0000000  0.0000000  0.0000000 )       (  0.3333333 )
                  (  0.0000000  1.0000000  0.0000000 )       (  0.0000000 )


   Cartesian axes

     site n.     atom                  positions (alat units)
         1        Fe     tau(   1) = (  -0.0001067  -0.0001067  -0.0001067  )
         2        Fe     tau(   2) = (   0.1719080   0.1719080   0.1719080  )
         3        Fe     tau(   3) = (   0.0011170   0.0011170   0.3333333  )
         4        Fe     tau(   4) = (   0.1719080   0.1719080   0.4947586  )
         5        Fe     tau(   5) = (  -0.0001067  -0.0001067   0.6667733  )
         6        Fe     tau(   6) = (   0.1661891   0.1661891   0.8333333  )
         7        Fe     tau(   7) = (   0.0011170   0.3333333   0.0011170  )
         8        Fe     tau(   8) = (   0.1719080   0.4947586   0.1719080  )
         9        Fe     tau(   9) = (  -0.0042449   0.3333333   0.3333333  )
        10        Fe     tau(  10) = (   0.1719080   0.4947586   0.4947586  )
        11        Fe     tau(  11) = (   0.0011170   0.3333333   0.6655496  )
        12        Fe     tau(  12) = (   0.1661891   0.5004775   0.8333333  )
        13        Fe     tau(  13) = (  -0.0001067   0.6667733  -0.0001067  )
        14        Fe     tau(  14) = (   0.1661891   0.8333333   0.1661891  )
        15        Fe     tau(  15) = (   0.0011170   0.6655496   0.3333333  )
        16        Fe     tau(  16) = (   0.1661891   0.8333333   0.5004775  )
        17        Fe     tau(  17) = (  -0.0001067   0.6667733   0.6667733  )
        18        Fe     tau(  18) = (   0.1676038   0.8333333   0.8333333  )
        19        Fe     tau(  19) = (   0.3333333   0.0011170   0.0011170  )
        20        Fe     tau(  20) = (   0.4947586   0.1719080   0.1719080  )
        21        Fe     tau(  21) = (   0.3333333  -0.0042449   0.3333333  )
        22        Fe     tau(  22) = (   0.4947586   0.1719080   0.4947586  )
        23        Fe     tau(  23) = (   0.3333333   0.0011170   0.6655496  )
        24        Fe     tau(  24) = (   0.5004775   0.1661891   0.8333333  )
        25        Fe     tau(  25) = (   0.3333333   0.3333333  -0.0042449  )
        26        Fe     tau(  26) = (   0.4947586   0.4947586   0.1719080  )
        27        Fe     tau(  27) = (   0.4947586   0.4947586   0.4947586  )
        28        Fe     tau(  28) = (   0.3333333   0.3333333   0.6709116  )
        29        Fe     tau(  29) = (   0.5004775   0.5004775   0.8333333  )
        30        Fe     tau(  30) = (   0.3333333   0.6655496   0.0011170  )
        31        Fe     tau(  31) = (   0.5004775   0.8333333   0.1661891  )
        32        Fe     tau(  32) = (   0.3333333   0.6709116   0.3333333  )
        33        Fe     tau(  33) = (   0.5004775   0.8333333   0.5004775  )
        34        Fe     tau(  34) = (   0.3333333   0.6655496   0.6655496  )
        35        Fe     tau(  35) = (   0.4990629   0.8333333   0.8333333  )
        36        Fe     tau(  36) = (   0.6667733  -0.0001067  -0.0001067  )
        37        Fe     tau(  37) = (   0.8333333   0.1661891   0.1661891  )
        38        Fe     tau(  38) = (   0.6655496   0.0011170   0.3333333  )
        39        Fe     tau(  39) = (   0.8333333   0.1661891   0.5004775  )
        40        Fe     tau(  40) = (   0.6667733  -0.0001067   0.6667733  )
        41        Fe     tau(  41) = (   0.8333333   0.1676038   0.8333333  )
        42        Fe     tau(  42) = (   0.6655496   0.3333333   0.0011170  )
        43        Fe     tau(  43) = (   0.8333333   0.5004775   0.1661891  )
        44        Fe     tau(  44) = (   0.6709116   0.3333333   0.3333333  )
        45        Fe     tau(  45) = (   0.8333333   0.5004775   0.5004775  )
        46        Fe     tau(  46) = (   0.6655496   0.3333333   0.6655496  )
        47        Fe     tau(  47) = (   0.8333333   0.4990629   0.8333333  )
        48        Fe     tau(  48) = (   0.6667733   0.6667733  -0.0001067  )
        49        Fe     tau(  49) = (   0.8333333   0.8333333   0.1676038  )
        50        Fe     tau(  50) = (   0.6655496   0.6655496   0.3333333  )
        51        Fe     tau(  51) = (   0.8333333   0.8333333   0.4990629  )
        52        Fe     tau(  52) = (   0.6667733   0.6667733   0.6667733  )
        53        Fe     tau(  53) = (   0.8333333   0.8333333   0.8333333  )

   Crystallographic axes

     site n.     atom                  positions (cryst. coord.)
         1        Fe     tau(   1) = ( -0.0001067 -0.0001067 -0.0001067  )
         2        Fe     tau(   2) = (  0.1719080  0.1719080  0.1719080  )
         3        Fe     tau(   3) = (  0.0011170  0.0011170  0.3333333  )
         4        Fe     tau(   4) = (  0.1719080  0.1719080  0.4947586  )
         5        Fe     tau(   5) = ( -0.0001067 -0.0001067  0.6667733  )
         6        Fe     tau(   6) = (  0.1661891  0.1661891  0.8333333  )
         7        Fe     tau(   7) = (  0.0011170  0.3333333  0.0011170  )
         8        Fe     tau(   8) = (  0.1719080  0.4947586  0.1719080  )
         9        Fe     tau(   9) = ( -0.0042449  0.3333333  0.3333333  )
        10        Fe     tau(  10) = (  0.1719080  0.4947586  0.4947586  )
        11        Fe     tau(  11) = (  0.0011170  0.3333333  0.6655496  )
        12        Fe     tau(  12) = (  0.1661891  0.5004775  0.8333333  )
        13        Fe     tau(  13) = ( -0.0001067  0.6667733 -0.0001067  )
        14        Fe     tau(  14) = (  0.1661891  0.8333333  0.1661891  )
        15        Fe     tau(  15) = (  0.0011170  0.6655496  0.3333333  )
        16        Fe     tau(  16) = (  0.1661891  0.8333333  0.5004775  )
        17        Fe     tau(  17) = ( -0.0001067  0.6667733  0.6667733  )
        18        Fe     tau(  18) = (  0.1676038  0.8333333  0.8333333  )
        19        Fe     tau(  19) = (  0.3333333  0.0011170  0.0011170  )
        20        Fe     tau(  20) = (  0.4947586  0.1719080  0.1719080  )
        21        Fe     tau(  21) = (  0.3333333 -0.0042449  0.3333333  )
        22        Fe     tau(  22) = (  0.4947586  0.1719080  0.4947586  )
        23        Fe     tau(  23) = (  0.3333333  0.0011170  0.6655496  )
        24        Fe     tau(  24) = (  0.5004775  0.1661891  0.8333333  )
        25        Fe     tau(  25) = (  0.3333333  0.3333333 -0.0042449  )
        26        Fe     tau(  26) = (  0.4947586  0.4947586  0.1719080  )
        27        Fe     tau(  27) = (  0.4947586  0.4947586  0.4947586  )
        28        Fe     tau(  28) = (  0.3333333  0.3333333  0.6709116  )
        29        Fe     tau(  29) = (  0.5004775  0.5004775  0.8333333  )
        30        Fe     tau(  30) = (  0.3333333  0.6655496  0.0011170  )
        31        Fe     tau(  31) = (  0.5004775  0.8333333  0.1661891  )
        32        Fe     tau(  32) = (  0.3333333  0.6709116  0.3333333  )
        33        Fe     tau(  33) = (  0.5004775  0.8333333  0.5004775  )
        34        Fe     tau(  34) = (  0.3333333  0.6655496  0.6655496  )
        35        Fe     tau(  35) = (  0.4990629  0.8333333  0.8333333  )
        36        Fe     tau(  36) = (  0.6667733 -0.0001067 -0.0001067  )
        37        Fe     tau(  37) = (  0.8333333  0.1661891  0.1661891  )
        38        Fe     tau(  38) = (  0.6655496  0.0011170  0.3333333  )
        39        Fe     tau(  39) = (  0.8333333  0.1661891  0.5004775  )
        40        Fe     tau(  40) = (  0.6667733 -0.0001067  0.6667733  )
        41        Fe     tau(  41) = (  0.8333333  0.1676038  0.8333333  )
        42        Fe     tau(  42) = (  0.6655496  0.3333333  0.0011170  )
        43        Fe     tau(  43) = (  0.8333333  0.5004775  0.1661891  )
        44        Fe     tau(  44) = (  0.6709116  0.3333333  0.3333333  )
        45        Fe     tau(  45) = (  0.8333333  0.5004775  0.5004775  )
        46        Fe     tau(  46) = (  0.6655496  0.3333333  0.6655496  )
        47        Fe     tau(  47) = (  0.8333333  0.4990629  0.8333333  )
        48        Fe     tau(  48) = (  0.6667733  0.6667733 -0.0001067  )
        49        Fe     tau(  49) = (  0.8333333  0.8333333  0.1676038  )
        50        Fe     tau(  50) = (  0.6655496  0.6655496  0.3333333  )
        51        Fe     tau(  51) = (  0.8333333  0.8333333  0.4990629  )
        52        Fe     tau(  52) = (  0.6667733  0.6667733  0.6667733  )
        53        Fe     tau(  53) = (  0.8333333  0.8333333  0.8333333  )

     number of k points=    56  Marzari-Vanderbilt smearing, width (Ry)=  0.0100
                       cart. coord. in units 2pi/alat
        k(    1) = (   0.0000000   0.0000000   0.0000000), wk =   0.0010000
        k(    2) = (   0.0000000   0.0000000   0.1000000), wk =   0.0060000
        k(    3) = (   0.0000000   0.0000000   0.2000000), wk =   0.0060000
        k(    4) = (   0.0000000   0.0000000   0.3000000), wk =   0.0060000
        k(    5) = (   0.0000000   0.0000000   0.4000000), wk =   0.0060000
        k(    6) = (   0.0000000   0.0000000  -0.5000000), wk =   0.0030000
        k(    7) = (   0.0000000   0.1000000   0.1000000), wk =   0.0120000
        k(    8) = (   0.0000000   0.1000000   0.2000000), wk =   0.0240000
        k(    9) = (   0.0000000   0.1000000   0.3000000), wk =   0.0240000
        k(   10) = (   0.0000000   0.1000000   0.4000000), wk =   0.0240000
        k(   11) = (   0.0000000   0.1000000  -0.5000000), wk =   0.0120000
        k(   12) = (   0.0000000   0.2000000   0.2000000), wk =   0.0120000
        k(   13) = (   0.0000000   0.2000000   0.3000000), wk =   0.0240000
        k(   14) = (   0.0000000   0.2000000   0.4000000), wk =   0.0240000
        k(   15) = (   0.0000000   0.2000000  -0.5000000), wk =   0.0120000
        k(   16) = (   0.0000000   0.3000000   0.3000000), wk =   0.0120000
        k(   17) = (   0.0000000   0.3000000   0.4000000), wk =   0.0240000
        k(   18) = (   0.0000000   0.3000000  -0.5000000), wk =   0.0120000
        k(   19) = (   0.0000000   0.4000000   0.4000000), wk =   0.0120000
        k(   20) = (   0.0000000   0.4000000  -0.5000000), wk =   0.0120000
        k(   21) = (   0.0000000  -0.5000000  -0.5000000), wk =   0.0030000
        k(   22) = (   0.1000000   0.1000000   0.1000000), wk =   0.0080000
        k(   23) = (   0.1000000   0.1000000   0.2000000), wk =   0.0240000
        k(   24) = (   0.1000000   0.1000000   0.3000000), wk =   0.0240000
        k(   25) = (   0.1000000   0.1000000   0.4000000), wk =   0.0240000
        k(   26) = (   0.1000000   0.1000000  -0.5000000), wk =   0.0120000
        k(   27) = (   0.1000000   0.2000000   0.2000000), wk =   0.0240000
        k(   28) = (   0.1000000   0.2000000   0.3000000), wk =   0.0480000
        k(   29) = (   0.1000000   0.2000000   0.4000000), wk =   0.0480000
        k(   30) = (   0.1000000   0.2000000  -0.5000000), wk =   0.0240000
        k(   31) = (   0.1000000   0.3000000   0.3000000), wk =   0.0240000
        k(   32) = (   0.1000000   0.3000000   0.4000000), wk =   0.0480000
        k(   33) = (   0.1000000   0.3000000  -0.5000000), wk =   0.0240000
        k(   34) = (   0.1000000   0.4000000   0.4000000), wk =   0.0240000
        k(   35) = (   0.1000000   0.4000000  -0.5000000), wk =   0.0240000
        k(   36) = (   0.1000000  -0.5000000  -0.5000000), wk =   0.0060000
        k(   37) = (   0.2000000   0.2000000   0.2000000), wk =   0.0080000
        k(   38) = (   0.2000000   0.2000000   0.3000000), wk =   0.0240000
        k(   39) = (   0.2000000   0.2000000   0.4000000), wk =   0.0240000
        k(   40) = (   0.2000000   0.2000000  -0.5000000), wk =   0.0120000
        k(   41) = (   0.2000000   0.3000000   0.3000000), wk =   0.0240000
        k(   42) = (   0.2000000   0.3000000   0.4000000), wk =   0.0480000
        k(   43) = (   0.2000000   0.3000000  -0.5000000), wk =   0.0240000
        k(   44) = (   0.2000000   0.4000000   0.4000000), wk =   0.0240000
        k(   45) = (   0.2000000   0.4000000  -0.5000000), wk =   0.0240000
        k(   46) = (   0.2000000  -0.5000000  -0.5000000), wk =   0.0060000
        k(   47) = (   0.3000000   0.3000000   0.3000000), wk =   0.0080000
        k(   48) = (   0.3000000   0.3000000   0.4000000), wk =   0.0240000
        k(   49) = (   0.3000000   0.3000000  -0.5000000), wk =   0.0120000
        k(   50) = (   0.3000000   0.4000000   0.4000000), wk =   0.0240000
        k(   51) = (   0.3000000   0.4000000  -0.5000000), wk =   0.0240000
        k(   52) = (   0.3000000  -0.5000000  -0.5000000), wk =   0.0060000
        k(   53) = (   0.4000000   0.4000000   0.4000000), wk =   0.0080000
        k(   54) = (   0.4000000   0.4000000  -0.5000000), wk =   0.0120000
        k(   55) = (   0.4000000  -0.5000000  -0.5000000), wk =   0.0060000
        k(   56) = (  -0.5000000  -0.5000000  -0.5000000), wk =   0.0010000

                       cryst. coord.
        k(    1) = (   0.0000000   0.0000000   0.0000000), wk =   0.0010000
        k(    2) = (   0.0000000   0.0000000   0.1000000), wk =   0.0060000
        k(    3) = (   0.0000000   0.0000000   0.2000000), wk =   0.0060000
        k(    4) = (   0.0000000   0.0000000   0.3000000), wk =   0.0060000
        k(    5) = (   0.0000000   0.0000000   0.4000000), wk =   0.0060000
        k(    6) = (   0.0000000   0.0000000  -0.5000000), wk =   0.0030000
        k(    7) = (   0.0000000   0.1000000   0.1000000), wk =   0.0120000
        k(    8) = (   0.0000000   0.1000000   0.2000000), wk =   0.0240000
        k(    9) = (   0.0000000   0.1000000   0.3000000), wk =   0.0240000
        k(   10) = (   0.0000000   0.1000000   0.4000000), wk =   0.0240000
        k(   11) = (   0.0000000   0.1000000  -0.5000000), wk =   0.0120000
        k(   12) = (   0.0000000   0.2000000   0.2000000), wk =   0.0120000
        k(   13) = (   0.0000000   0.2000000   0.3000000), wk =   0.0240000
        k(   14) = (   0.0000000   0.2000000   0.4000000), wk =   0.0240000
        k(   15) = (   0.0000000   0.2000000  -0.5000000), wk =   0.0120000
        k(   16) = (   0.0000000   0.3000000   0.3000000), wk =   0.0120000
        k(   17) = (   0.0000000   0.3000000   0.4000000), wk =   0.0240000
        k(   18) = (   0.0000000   0.3000000  -0.5000000), wk =   0.0120000
        k(   19) = (   0.0000000   0.4000000   0.4000000), wk =   0.0120000
        k(   20) = (   0.0000000   0.4000000  -0.5000000), wk =   0.0120000
        k(   21) = (   0.0000000  -0.5000000  -0.5000000), wk =   0.0030000
        k(   22) = (   0.1000000   0.1000000   0.1000000), wk =   0.0080000
        k(   23) = (   0.1000000   0.1000000   0.2000000), wk =   0.0240000
        k(   24) = (   0.1000000   0.1000000   0.3000000), wk =   0.0240000
        k(   25) = (   0.1000000   0.1000000   0.4000000), wk =   0.0240000
        k(   26) = (   0.1000000   0.1000000  -0.5000000), wk =   0.0120000
        k(   27) = (   0.1000000   0.2000000   0.2000000), wk =   0.0240000
        k(   28) = (   0.1000000   0.2000000   0.3000000), wk =   0.0480000
        k(   29) = (   0.1000000   0.2000000   0.4000000), wk =   0.0480000
        k(   30) = (   0.1000000   0.2000000  -0.5000000), wk =   0.0240000
        k(   31) = (   0.1000000   0.3000000   0.3000000), wk =   0.0240000
        k(   32) = (   0.1000000   0.3000000   0.4000000), wk =   0.0480000
        k(   33) = (   0.1000000   0.3000000  -0.5000000), wk =   0.0240000
        k(   34) = (   0.1000000   0.4000000   0.4000000), wk =   0.0240000
        k(   35) = (   0.1000000   0.4000000  -0.5000000), wk =   0.0240000
        k(   36) = (   0.1000000  -0.5000000  -0.5000000), wk =   0.0060000
        k(   37) = (   0.2000000   0.2000000   0.2000000), wk =   0.0080000
        k(   38) = (   0.2000000   0.2000000   0.3000000), wk =   0.0240000
        k(   39) = (   0.2000000   0.2000000   0.4000000), wk =   0.0240000
        k(   40) = (   0.2000000   0.2000000  -0.5000000), wk =   0.0120000
        k(   41) = (   0.2000000   0.3000000   0.3000000), wk =   0.0240000
        k(   42) = (   0.2000000   0.3000000   0.4000000), wk =   0.0480000
        k(   43) = (   0.2000000   0.3000000  -0.5000000), wk =   0.0240000
        k(   44) = (   0.2000000   0.4000000   0.4000000), wk =   0.0240000
        k(   45) = (   0.2000000   0.4000000  -0.5000000), wk =   0.0240000
        k(   46) = (   0.2000000  -0.5000000  -0.5000000), wk =   0.0060000
        k(   47) = (   0.3000000   0.3000000   0.3000000), wk =   0.0080000
        k(   48) = (   0.3000000   0.3000000   0.4000000), wk =   0.0240000
        k(   49) = (   0.3000000   0.3000000  -0.5000000), wk =   0.0120000
        k(   50) = (   0.3000000   0.4000000   0.4000000), wk =   0.0240000
        k(   51) = (   0.3000000   0.4000000  -0.5000000), wk =   0.0240000
        k(   52) = (   0.3000000  -0.5000000  -0.5000000), wk =   0.0060000
        k(   53) = (   0.4000000   0.4000000   0.4000000), wk =   0.0080000
        k(   54) = (   0.4000000   0.4000000  -0.5000000), wk =   0.0120000
        k(   55) = (   0.4000000  -0.5000000  -0.5000000), wk =   0.0060000
        k(   56) = (  -0.5000000  -0.5000000  -0.5000000), wk =   0.0010000

     Dense  grid:  2576031 G-vectors     FFT dimensions: ( 180, 180, 180)

     Smooth grid:   495639 G-vectors     FFT dimensions: ( 108, 108, 108)

     Dynamical RAM for                 wfc:      30.08 MB

     Dynamical RAM for     wfc (w. buffer):     451.21 MB

     Dynamical RAM for           str. fact:       2.46 MB

     Dynamical RAM for           local pot:       0.00 MB

     Dynamical RAM for          nlocal pot:      56.38 MB

     Dynamical RAM for                qrad:       2.64 MB

     Dynamical RAM for          rho,v,vnew:      32.54 MB

     Dynamical RAM for               rhoin:      10.85 MB

     Dynamical RAM for            rho*nmix:      78.61 MB

     Dynamical RAM for           G-vectors:       9.45 MB

     Dynamical RAM for          h,s,v(r/c):       2.95 MB

     Dynamical RAM for          <psi|beta>:       7.41 MB

     Dynamical RAM for                 psi:      60.16 MB

     Dynamical RAM for                hpsi:      60.16 MB

     Dynamical RAM for                spsi:      60.16 MB

     Dynamical RAM for      wfcinit/wfcrot:      92.31 MB

     Dynamical RAM for           addusdens:      78.00 MB

     Dynamical RAM for          addusforce:     108.20 MB

     Dynamical RAM for         addusstress:      64.33 MB

     Estimated static dynamical RAM per process >     588.22 MB

     Estimated max dynamical RAM per process >     857.68 MB

     Estimated total dynamical RAM >      98.61 GB

     Check: negative core charge=   -0.000010
     Generating pointlists ...
     new r_m :   0.1183 (alat units)  1.9236 (a.u.) for type    1

     Initial potential from superposition of free atoms

     starting charge     847.9768, renormalised to     848.0000
     Starting wfcs are  689 randomized atomic wfcs

     total cpu time spent up to now is       94.8 secs

     per-process dynamical memory:   810.5 Mb

     Self-consistent Calculation

     iteration #  1     ecut=    90.00 Ry     beta= 0.20
     Davidson diagonalization with overlap

---- Real-time Memory Report at c_bands before calling an iterative solver
           979 MiB given to the printing process from OS
           791 MiB allocation reported by mallinfo(arena+hblkhd)
        393660 MiB available memory on the node where the printing process lives
------------------
     ethr =  1.00E-02,  avg # of iterations =  2.0

     total cpu time spent up to now is      326.7 secs

     total energy              =  -13472.63997349 Ry
     estimated scf accuracy    <      14.97004157 Ry

     total magnetization       =   169.01 Bohr mag/cell
     absolute magnetization    =   171.72 Bohr mag/cell

     iteration #  2     ecut=    90.00 Ry     beta= 0.20
     Davidson diagonalization with overlap

---- Real-time Memory Report at c_bands before calling an iterative solver
          1125 MiB given to the printing process from OS
           817 MiB allocation reported by mallinfo(arena+hblkhd)
        391421 MiB available memory on the node where the printing process lives
------------------
     ethr =  1.77E-03,  avg # of iterations =  2.7

     total cpu time spent up to now is      543.8 secs

     total energy              =  -13473.29498121 Ry
     estimated scf accuracy    <      20.54567662 Ry

     total magnetization       =   165.40 Bohr mag/cell
     absolute magnetization    =   169.10 Bohr mag/cell

     iteration #  3     ecut=    90.00 Ry     beta= 0.20
     Davidson diagonalization with overlap

---- Real-time Memory Report at c_bands before calling an iterative solver
          1138 MiB given to the printing process from OS
           819 MiB allocation reported by mallinfo(arena+hblkhd)
        391392 MiB available memory on the node where the printing process lives
------------------
     ethr =  1.77E-03,  avg # of iterations =  1.5

     negative rho (up, down):  0.000E+00 1.272E-03

     total cpu time spent up to now is      751.5 secs

     total energy              =  -13477.94224346 Ry
     estimated scf accuracy    <      16.66452510 Ry

     total magnetization       =   164.53 Bohr mag/cell
     absolute magnetization    =   168.69 Bohr mag/cell

     iteration #  4     ecut=    90.00 Ry     beta= 0.20
     Davidson diagonalization with overlap

---- Real-time Memory Report at c_bands before calling an iterative solver
          1141 MiB given to the printing process from OS
           822 MiB allocation reported by mallinfo(arena+hblkhd)
        391335 MiB available memory on the node where the printing process lives
------------------
     ethr =  1.77E-03,  avg # of iterations =  1.5

     negative rho (up, down):  0.000E+00 3.037E-03

     total cpu time spent up to now is      957.2 secs

     total energy              =  -13479.99712320 Ry
     estimated scf accuracy    <      21.47756007 Ry

     total magnetization       =   151.71 Bohr mag/cell
     absolute magnetization    =   158.01 Bohr mag/cell

     iteration #  5     ecut=    90.00 Ry     beta= 0.20
     Davidson diagonalization with overlap

---- Real-time Memory Report at c_bands before calling an iterative solver
          1144 MiB given to the printing process from OS
           824 MiB allocation reported by mallinfo(arena+hblkhd)
        391279 MiB available memory on the node where the printing process lives
------------------
     ethr =  1.77E-03,  avg # of iterations =  1.0

     negative rho (up, down):  0.000E+00 3.161E-03

     total cpu time spent up to now is     1146.1 secs

     total energy              =  -13481.26062869 Ry
     estimated scf accuracy    <       1.42983206 Ry

     total magnetization       =   138.89 Bohr mag/cell
     absolute magnetization    =   147.56 Bohr mag/cell

     iteration #  6     ecut=    90.00 Ry     beta= 0.20
     Davidson diagonalization with overlap

---- Real-time Memory Report at c_bands before calling an iterative solver
          1146 MiB given to the printing process from OS
           826 MiB allocation reported by mallinfo(arena+hblkhd)
        391244 MiB available memory on the node where the printing process lives
------------------
     ethr =  1.69E-04,  avg # of iterations =  2.2

     negative rho (up, down):  0.000E+00 3.307E-03

     total cpu time spent up to now is     1361.2 secs

     total energy              =  -13481.34592697 Ry
     estimated scf accuracy    <       0.67291433 Ry

     total magnetization       =   137.08 Bohr mag/cell
     absolute magnetization    =   145.34 Bohr mag/cell

     iteration #  7     ecut=    90.00 Ry     beta= 0.20
     Davidson diagonalization with overlap

---- Real-time Memory Report at c_bands before calling an iterative solver
          1148 MiB given to the printing process from OS
           828 MiB allocation reported by mallinfo(arena+hblkhd)
        391195 MiB available memory on the node where the printing process lives
------------------
     ethr =  7.94E-05,  avg # of iterations =  3.2

     negative rho (up, down):  0.000E+00 3.199E-03

     total cpu time spent up to now is     1610.3 secs

     total energy              =  -13481.48706560 Ry
     estimated scf accuracy    <       0.84613295 Ry

     total magnetization       =   124.73 Bohr mag/cell
     absolute magnetization    =   133.80 Bohr mag/cell

     iteration #  8     ecut=    90.00 Ry     beta= 0.20
     Davidson diagonalization with overlap

---- Real-time Memory Report at c_bands before calling an iterative solver
          1150 MiB given to the printing process from OS
           831 MiB allocation reported by mallinfo(arena+hblkhd)
        391135 MiB available memory on the node where the printing process lives
------------------
     ethr =  7.94E-05,  avg # of iterations =  1.0

     negative rho (up, down):  0.000E+00 3.053E-03

     total cpu time spent up to now is     1799.1 secs

     total energy              =  -13481.54400955 Ry
     estimated scf accuracy    <       0.15310473 Ry

     total magnetization       =   126.15 Bohr mag/cell
     absolute magnetization    =   134.89 Bohr mag/cell

     iteration #  9     ecut=    90.00 Ry     beta= 0.20
     Davidson diagonalization with overlap

---- Real-time Memory Report at c_bands before calling an iterative solver
          1152 MiB given to the printing process from OS
           833 MiB allocation reported by mallinfo(arena+hblkhd)
        391083 MiB available memory on the node where the printing process lives
------------------
     ethr =  1.81E-05,  avg # of iterations =  3.4

     negative rho (up, down):  0.000E+00 2.748E-03

     total cpu time spent up to now is     2025.7 secs

     total energy              =  -13481.55985873 Ry
     estimated scf accuracy    <       0.24520466 Ry

     total magnetization       =   126.13 Bohr mag/cell
     absolute magnetization    =   134.60 Bohr mag/cell

     iteration # 10     ecut=    90.00 Ry     beta= 0.20
     Davidson diagonalization with overlap

---- Real-time Memory Report at c_bands before calling an iterative solver
          1154 MiB given to the printing process from OS
           835 MiB allocation reported by mallinfo(arena+hblkhd)
        391028 MiB available memory on the node where the printing process lives
------------------
     ethr =  1.81E-05,  avg # of iterations =  1.1

     negative rho (up, down):  0.000E+00 2.101E-03

     total cpu time spent up to now is     2218.4 secs

     total energy              =  -13481.58543934 Ry
     estimated scf accuracy    <       0.04282715 Ry

     total magnetization       =   123.71 Bohr mag/cell
     absolute magnetization    =   132.07 Bohr mag/cell

     iteration # 11     ecut=    90.00 Ry     beta= 0.20
     Davidson diagonalization with overlap

---- Real-time Memory Report at c_bands before calling an iterative solver
          1156 MiB given to the printing process from OS
           835 MiB allocation reported by mallinfo(arena+hblkhd)
        391156 MiB available memory on the node where the printing process lives
------------------
     ethr =  5.05E-06,  avg # of iterations =  7.1

     negative rho (up, down):  0.000E+00 2.009E-03

     total cpu time spent up to now is     2497.5 secs

     total energy              =  -13481.60249675 Ry
     estimated scf accuracy    <       0.03849768 Ry

     total magnetization       =   120.74 Bohr mag/cell
     absolute magnetization    =   128.57 Bohr mag/cell

     iteration # 12     ecut=    90.00 Ry     beta= 0.20
     Davidson diagonalization with overlap

---- Real-time Memory Report at c_bands before calling an iterative solver
          1156 MiB given to the printing process from OS
           835 MiB allocation reported by mallinfo(arena+hblkhd)
        391104 MiB available memory on the node where the printing process lives
------------------
     ethr =  4.54E-06,  avg # of iterations =  1.8

     negative rho (up, down):  0.000E+00 1.769E-03

     total cpu time spent up to now is     2703.6 secs

     total energy              =  -13481.61101166 Ry
     estimated scf accuracy    <       0.01559227 Ry

     total magnetization       =   120.89 Bohr mag/cell
     absolute magnetization    =   128.51 Bohr mag/cell

     iteration # 13     ecut=    90.00 Ry     beta= 0.20
     Davidson diagonalization with overlap

---- Real-time Memory Report at c_bands before calling an iterative solver
          1156 MiB given to the printing process from OS
           835 MiB allocation reported by mallinfo(arena+hblkhd)
        391099 MiB available memory on the node where the printing process lives
------------------
     ethr =  1.84E-06,  avg # of iterations =  4.3

     negative rho (up, down):  0.000E+00 1.740E-03

     total cpu time spent up to now is     2932.8 secs

     total energy              =  -13481.61323201 Ry
     estimated scf accuracy    <       0.00525939 Ry

     total magnetization       =   120.81 Bohr mag/cell
     absolute magnetization    =   128.13 Bohr mag/cell

     iteration # 14     ecut=    90.00 Ry     beta= 0.20
     Davidson diagonalization with overlap

---- Real-time Memory Report at c_bands before calling an iterative solver
          1156 MiB given to the printing process from OS
           835 MiB allocation reported by mallinfo(arena+hblkhd)
        391082 MiB available memory on the node where the printing process lives
------------------
     ethr =  6.20E-07,  avg # of iterations =  3.4

     negative rho (up, down):  0.000E+00 1.718E-03

     total cpu time spent up to now is     3167.8 secs

     total energy              =  -13481.61431614 Ry
     estimated scf accuracy    <       0.00358744 Ry

     total magnetization       =   120.80 Bohr mag/cell
     absolute magnetization    =   128.02 Bohr mag/cell

     iteration # 15     ecut=    90.00 Ry     beta= 0.20
     Davidson diagonalization with overlap

---- Real-time Memory Report at c_bands before calling an iterative solver
          1156 MiB given to the printing process from OS
           835 MiB allocation reported by mallinfo(arena+hblkhd)
        391060 MiB available memory on the node where the printing process lives
------------------
     ethr =  4.23E-07,  avg # of iterations =  1.8

     negative rho (up, down):  0.000E+00 1.687E-03

     total cpu time spent up to now is     3377.6 secs

     total energy              =  -13481.61522707 Ry
     estimated scf accuracy    <       0.00195758 Ry

     total magnetization       =   120.72 Bohr mag/cell
     absolute magnetization    =   127.88 Bohr mag/cell

     iteration # 16     ecut=    90.00 Ry     beta= 0.20
     Davidson diagonalization with overlap

---- Real-time Memory Report at c_bands before calling an iterative solver
          1156 MiB given to the printing process from OS
           835 MiB allocation reported by mallinfo(arena+hblkhd)
        391058 MiB available memory on the node where the printing process lives
------------------
     ethr =  2.31E-07,  avg # of iterations =  2.6

     negative rho (up, down):  0.000E+00 1.695E-03

     total cpu time spent up to now is     3604.0 secs

     total energy              =  -13481.61545150 Ry
     estimated scf accuracy    <       0.00216131 Ry

     total magnetization       =   120.63 Bohr mag/cell
     absolute magnetization    =   127.69 Bohr mag/cell

     iteration # 17     ecut=    90.00 Ry     beta= 0.20
     Davidson diagonalization with overlap

---- Real-time Memory Report at c_bands before calling an iterative solver
          1156 MiB given to the printing process from OS
           835 MiB allocation reported by mallinfo(arena+hblkhd)
        391049 MiB available memory on the node where the printing process lives
------------------
     ethr =  2.31E-07,  avg # of iterations =  1.3

     negative rho (up, down):  0.000E+00 1.685E-03

     total cpu time spent up to now is     3805.4 secs

     total energy              =  -13481.61570389 Ry
     estimated scf accuracy    <       0.00129731 Ry

     total magnetization       =   120.67 Bohr mag/cell
     absolute magnetization    =   127.70 Bohr mag/cell

     iteration # 18     ecut=    90.00 Ry     beta= 0.20
     Davidson diagonalization with overlap

---- Real-time Memory Report at c_bands before calling an iterative solver
          1156 MiB given to the printing process from OS
           835 MiB allocation reported by mallinfo(arena+hblkhd)
        391046 MiB available memory on the node where the printing process lives
------------------
     ethr =  1.53E-07,  avg # of iterations =  4.9

     negative rho (up, down):  0.000E+00 1.692E-03

     total cpu time spent up to now is     4074.6 secs

     total energy              =  -13481.61663957 Ry
     estimated scf accuracy    <       0.00026631 Ry

     total magnetization       =   120.05 Bohr mag/cell
     absolute magnetization    =   126.88 Bohr mag/cell

     iteration # 19     ecut=    90.00 Ry     beta= 0.20
     Davidson diagonalization with overlap

---- Real-time Memory Report at c_bands before calling an iterative solver
          1156 MiB given to the printing process from OS
           835 MiB allocation reported by mallinfo(arena+hblkhd)
        391299 MiB available memory on the node where the printing process lives
------------------
     ethr =  3.14E-08,  avg # of iterations =  3.9

     negative rho (up, down):  0.000E+00 1.703E-03

     total cpu time spent up to now is     4331.2 secs

     total energy              =  -13481.61669616 Ry
     estimated scf accuracy    <       0.00218371 Ry

     total magnetization       =   120.08 Bohr mag/cell
     absolute magnetization    =   126.91 Bohr mag/cell

     iteration # 20     ecut=    90.00 Ry     beta= 0.20
     Davidson diagonalization with overlap

---- Real-time Memory Report at c_bands before calling an iterative solver
          1156 MiB given to the printing process from OS
           835 MiB allocation reported by mallinfo(arena+hblkhd)
        391288 MiB available memory on the node where the printing process lives
------------------
     ethr =  3.14E-08,  avg # of iterations =  2.1

     negative rho (up, down):  0.000E+00 1.693E-03

     total cpu time spent up to now is     4542.8 secs

     total energy              =  -13481.61678865 Ry
     estimated scf accuracy    <       0.00031265 Ry

     total magnetization       =   120.10 Bohr mag/cell
     absolute magnetization    =   126.90 Bohr mag/cell

     iteration # 21     ecut=    90.00 Ry     beta= 0.20
     Davidson diagonalization with overlap

---- Real-time Memory Report at c_bands before calling an iterative solver
          1156 MiB given to the printing process from OS
           835 MiB allocation reported by mallinfo(arena+hblkhd)
        391272 MiB available memory on the node where the printing process lives
------------------
     ethr =  3.14E-08,  avg # of iterations =  1.0

     negative rho (up, down):  0.000E+00 1.705E-03

     total cpu time spent up to now is     4730.5 secs

     total energy              =  -13481.61682657 Ry
     estimated scf accuracy    <       0.00006301 Ry

     total magnetization       =   120.04 Bohr mag/cell
     absolute magnetization    =   126.83 Bohr mag/cell

     iteration # 22     ecut=    90.00 Ry     beta= 0.20
     Davidson diagonalization with overlap

---- Real-time Memory Report at c_bands before calling an iterative solver
          1156 MiB given to the printing process from OS
           835 MiB allocation reported by mallinfo(arena+hblkhd)
        391269 MiB available memory on the node where the printing process lives
------------------
     ethr =  7.43E-09,  avg # of iterations =  4.4

     negative rho (up, down):  0.000E+00 1.706E-03

     total cpu time spent up to now is     5008.7 secs

     total energy              =  -13481.61687757 Ry
     estimated scf accuracy    <       0.00004049 Ry

     total magnetization       =   120.00 Bohr mag/cell
     absolute magnetization    =   126.73 Bohr mag/cell

     iteration # 23     ecut=    90.00 Ry     beta= 0.20
     Davidson diagonalization with overlap

---- Real-time Memory Report at c_bands before calling an iterative solver
          1156 MiB given to the printing process from OS
           835 MiB allocation reported by mallinfo(arena+hblkhd)
        391229 MiB available memory on the node where the printing process lives
------------------
     ethr =  4.78E-09,  avg # of iterations =  1.4

     negative rho (up, down):  0.000E+00 1.708E-03

     total cpu time spent up to now is     5214.7 secs

     total energy              =  -13481.61688953 Ry
     estimated scf accuracy    <       0.00002234 Ry

     total magnetization       =   120.02 Bohr mag/cell
     absolute magnetization    =   126.75 Bohr mag/cell

     iteration # 24     ecut=    90.00 Ry     beta= 0.20
     Davidson diagonalization with overlap

---- Real-time Memory Report at c_bands before calling an iterative solver
          1156 MiB given to the printing process from OS
           835 MiB allocation reported by mallinfo(arena+hblkhd)
        391219 MiB available memory on the node where the printing process lives
------------------
     ethr =  2.63E-09,  avg # of iterations =  1.8

     negative rho (up, down):  0.000E+00 1.708E-03

     total cpu time spent up to now is     5424.0 secs

     total energy              =  -13481.61689530 Ry
     estimated scf accuracy    <       0.00001112 Ry

     total magnetization       =   120.02 Bohr mag/cell
     absolute magnetization    =   126.75 Bohr mag/cell

     iteration # 25     ecut=    90.00 Ry     beta= 0.20
     Davidson diagonalization with overlap

---- Real-time Memory Report at c_bands before calling an iterative solver
          1156 MiB given to the printing process from OS
           835 MiB allocation reported by mallinfo(arena+hblkhd)
        391216 MiB available memory on the node where the printing process lives
------------------
     ethr =  1.31E-09,  avg # of iterations =  2.0

     negative rho (up, down):  0.000E+00 1.709E-03

     total cpu time spent up to now is     5637.2 secs

     total energy              =  -13481.61690072 Ry
     estimated scf accuracy    <       0.00001523 Ry

     total magnetization       =   120.03 Bohr mag/cell
     absolute magnetization    =   126.76 Bohr mag/cell

     iteration # 26     ecut=    90.00 Ry     beta= 0.20
     Davidson diagonalization with overlap

---- Real-time Memory Report at c_bands before calling an iterative solver
          1156 MiB given to the printing process from OS
           835 MiB allocation reported by mallinfo(arena+hblkhd)
        391213 MiB available memory on the node where the printing process lives
------------------
     ethr =  1.31E-09,  avg # of iterations =  1.9

     negative rho (up, down):  0.000E+00 1.710E-03

     total cpu time spent up to now is     5850.9 secs

     total energy              =  -13481.61690436 Ry
     estimated scf accuracy    <       0.00001183 Ry

     total magnetization       =   120.04 Bohr mag/cell
     absolute magnetization    =   126.78 Bohr mag/cell

     iteration # 27     ecut=    90.00 Ry     beta= 0.20
     Davidson diagonalization with overlap

---- Real-time Memory Report at c_bands before calling an iterative solver
          1156 MiB given to the printing process from OS
           835 MiB allocation reported by mallinfo(arena+hblkhd)
        391205 MiB available memory on the node where the printing process lives
------------------
     ethr =  1.31E-09,  avg # of iterations =  1.5

     negative rho (up, down):  0.000E+00 1.710E-03

     total cpu time spent up to now is     6057.1 secs

     total energy              =  -13481.61690684 Ry
     estimated scf accuracy    <       0.00000563 Ry

     total magnetization       =   120.05 Bohr mag/cell
     absolute magnetization    =   126.79 Bohr mag/cell

     iteration # 28     ecut=    90.00 Ry     beta= 0.20
     Davidson diagonalization with overlap

---- Real-time Memory Report at c_bands before calling an iterative solver
          1156 MiB given to the printing process from OS
           835 MiB allocation reported by mallinfo(arena+hblkhd)
        391200 MiB available memory on the node where the printing process lives
------------------
     ethr =  6.64E-10,  avg # of iterations =  2.0

     negative rho (up, down):  0.000E+00 1.709E-03

     total cpu time spent up to now is     6264.4 secs

     total energy              =  -13481.61690832 Ry
     estimated scf accuracy    <       0.00000202 Ry

     total magnetization       =   120.05 Bohr mag/cell
     absolute magnetization    =   126.78 Bohr mag/cell

     iteration # 29     ecut=    90.00 Ry     beta= 0.20
     Davidson diagonalization with overlap

---- Real-time Memory Report at c_bands before calling an iterative solver
          1156 MiB given to the printing process from OS
           835 MiB allocation reported by mallinfo(arena+hblkhd)
        391197 MiB available memory on the node where the printing process lives
------------------
     ethr =  2.39E-10,  avg # of iterations =  3.4

     negative rho (up, down):  0.000E+00 1.708E-03

     total cpu time spent up to now is     6532.0 secs

     total energy              =  -13481.61690944 Ry
     estimated scf accuracy    <       0.00000256 Ry

     total magnetization       =   120.05 Bohr mag/cell
     absolute magnetization    =   126.78 Bohr mag/cell

     iteration # 30     ecut=    90.00 Ry     beta= 0.20
     Davidson diagonalization with overlap

---- Real-time Memory Report at c_bands before calling an iterative solver
          1156 MiB given to the printing process from OS
           835 MiB allocation reported by mallinfo(arena+hblkhd)
        391154 MiB available memory on the node where the printing process lives
------------------
     ethr =  2.39E-10,  avg # of iterations =  1.7

     negative rho (up, down):  0.000E+00 1.708E-03

     total cpu time spent up to now is     6737.8 secs

     total energy              =  -13481.61690999 Ry
     estimated scf accuracy    <       0.00000034 Ry

     total magnetization       =   120.05 Bohr mag/cell
     absolute magnetization    =   126.78 Bohr mag/cell

     iteration # 31     ecut=    90.00 Ry     beta= 0.20
     Davidson diagonalization with overlap

---- Real-time Memory Report at c_bands before calling an iterative solver
          1156 MiB given to the printing process from OS
           835 MiB allocation reported by mallinfo(arena+hblkhd)
        391150 MiB available memory on the node where the printing process lives
------------------
     ethr =  4.03E-11,  avg # of iterations =  3.8

     negative rho (up, down):  0.000E+00 1.708E-03

     total cpu time spent up to now is     7007.3 secs

     total energy              =  -13481.61691021 Ry
     estimated scf accuracy    <       0.00000042 Ry

     total magnetization       =   120.04 Bohr mag/cell
     absolute magnetization    =   126.77 Bohr mag/cell

     iteration # 32     ecut=    90.00 Ry     beta= 0.20
     Davidson diagonalization with overlap

---- Real-time Memory Report at c_bands before calling an iterative solver
          1156 MiB given to the printing process from OS
           835 MiB allocation reported by mallinfo(arena+hblkhd)
        391118 MiB available memory on the node where the printing process lives
------------------
     ethr =  4.03E-11,  avg # of iterations =  1.6

     negative rho (up, down):  0.000E+00 1.707E-03

     total cpu time spent up to now is     7213.1 secs

     total energy              =  -13481.61691034 Ry
     estimated scf accuracy    <       0.00000025 Ry

     total magnetization       =   120.04 Bohr mag/cell
     absolute magnetization    =   126.77 Bohr mag/cell

     iteration # 33     ecut=    90.00 Ry     beta= 0.20
     Davidson diagonalization with overlap

---- Real-time Memory Report at c_bands before calling an iterative solver
          1156 MiB given to the printing process from OS
           835 MiB allocation reported by mallinfo(arena+hblkhd)
        391107 MiB available memory on the node where the printing process lives
------------------
     ethr =  2.95E-11,  avg # of iterations =  2.8

     negative rho (up, down):  0.000E+00 1.707E-03

     total cpu time spent up to now is     7455.6 secs

     total energy              =  -13481.61691052 Ry
     estimated scf accuracy    <       0.00000025 Ry

     total magnetization       =   120.04 Bohr mag/cell
     absolute magnetization    =   126.77 Bohr mag/cell

     iteration # 34     ecut=    90.00 Ry     beta= 0.20
     Davidson diagonalization with overlap

---- Real-time Memory Report at c_bands before calling an iterative solver
          1156 MiB given to the printing process from OS
           835 MiB allocation reported by mallinfo(arena+hblkhd)
        391093 MiB available memory on the node where the printing process lives
------------------
     ethr =  2.89E-11,  avg # of iterations =  1.0

     negative rho (up, down):  0.000E+00 1.707E-03

     total cpu time spent up to now is     7646.3 secs

     total energy              =  -13481.61691061 Ry
     estimated scf accuracy    <       0.00000004 Ry

     total magnetization       =   120.04 Bohr mag/cell
     absolute magnetization    =   126.77 Bohr mag/cell

     iteration # 35     ecut=    90.00 Ry     beta= 0.20
     Davidson diagonalization with overlap

---- Real-time Memory Report at c_bands before calling an iterative solver
          1156 MiB given to the printing process from OS
           835 MiB allocation reported by mallinfo(arena+hblkhd)
        391108 MiB available memory on the node where the printing process lives
------------------
     ethr =  4.46E-12,  avg # of iterations =  2.9

     negative rho (up, down):  0.000E+00 1.707E-03

     total cpu time spent up to now is     7895.0 secs

     total energy              =  -13481.61691064 Ry
     estimated scf accuracy    <       0.00000005 Ry

     total magnetization       =   120.04 Bohr mag/cell
     absolute magnetization    =   126.77 Bohr mag/cell

     iteration # 36     ecut=    90.00 Ry     beta= 0.20
     Davidson diagonalization with overlap

---- Real-time Memory Report at c_bands before calling an iterative solver
          1156 MiB given to the printing process from OS
           835 MiB allocation reported by mallinfo(arena+hblkhd)
        391096 MiB available memory on the node where the printing process lives
------------------
     ethr =  4.46E-12,  avg # of iterations =  2.0

     negative rho (up, down):  0.000E+00 1.707E-03

     total cpu time spent up to now is     8108.3 secs

     total energy              =  -13481.61691069 Ry
     estimated scf accuracy    <       0.00000006 Ry

     total magnetization       =   120.04 Bohr mag/cell
     absolute magnetization    =   126.77 Bohr mag/cell

     iteration # 37     ecut=    90.00 Ry     beta= 0.20
     Davidson diagonalization with overlap

---- Real-time Memory Report at c_bands before calling an iterative solver
          1156 MiB given to the printing process from OS
           835 MiB allocation reported by mallinfo(arena+hblkhd)
        391092 MiB available memory on the node where the printing process lives
------------------
     ethr =  4.46E-12,  avg # of iterations =  2.0

     negative rho (up, down):  0.000E+00 1.707E-03

     total cpu time spent up to now is     8319.7 secs

     total energy              =  -13481.61691071 Ry
     estimated scf accuracy    <       0.00000001 Ry

     total magnetization       =   120.04 Bohr mag/cell
     absolute magnetization    =   126.77 Bohr mag/cell

     iteration # 38     ecut=    90.00 Ry     beta= 0.20
     Davidson diagonalization with overlap

---- Real-time Memory Report at c_bands before calling an iterative solver
          1156 MiB given to the printing process from OS
           835 MiB allocation reported by mallinfo(arena+hblkhd)
        391083 MiB available memory on the node where the printing process lives
------------------
     ethr =  1.76E-12,  avg # of iterations =  2.3

     negative rho (up, down):  0.000E+00 1.707E-03

     total cpu time spent up to now is     8539.8 secs

     total energy              =  -13481.61691073 Ry
     estimated scf accuracy    <       0.00000001 Ry

     total magnetization       =   120.03 Bohr mag/cell
     absolute magnetization    =   126.77 Bohr mag/cell

     iteration # 39     ecut=    90.00 Ry     beta= 0.20
     Davidson diagonalization with overlap

---- Real-time Memory Report at c_bands before calling an iterative solver
          1156 MiB given to the printing process from OS
           835 MiB allocation reported by mallinfo(arena+hblkhd)
        391076 MiB available memory on the node where the printing process lives
------------------
     ethr =  1.71E-12,  avg # of iterations =  2.3

     negative rho (up, down):  0.000E+00 1.707E-03

     Magnetic moment per site  (integrated on atomic sphere of radius R)
     atom   1 (R=0.118)  charge= 14.3730  magn=  2.3548
     atom   2 (R=0.118)  charge= 14.3295  magn=  2.5204
     atom   3 (R=0.118)  charge= 14.3773  magn=  2.2976
     atom   4 (R=0.118)  charge= 14.3295  magn=  2.5204
     atom   5 (R=0.118)  charge= 14.3730  magn=  2.3548
     atom   6 (R=0.118)  charge= 14.3886  magn=  2.2618
     atom   7 (R=0.118)  charge= 14.3773  magn=  2.2976
     atom   8 (R=0.118)  charge= 14.3295  magn=  2.5204
     atom   9 (R=0.118)  charge= 14.4059  magn=  2.1897
     atom  10 (R=0.118)  charge= 14.3295  magn=  2.5204
     atom  11 (R=0.118)  charge= 14.3773  magn=  2.2976
     atom  12 (R=0.118)  charge= 14.3886  magn=  2.2618
     atom  13 (R=0.118)  charge= 14.3730  magn=  2.3548
     atom  14 (R=0.118)  charge= 14.3886  magn=  2.2618
     atom  15 (R=0.118)  charge= 14.3773  magn=  2.2976
     atom  16 (R=0.118)  charge= 14.3886  magn=  2.2618
     atom  17 (R=0.118)  charge= 14.3730  magn=  2.3548
     atom  18 (R=0.118)  charge= 14.3811  magn=  2.2666
     atom  19 (R=0.118)  charge= 14.3773  magn=  2.2976
     atom  20 (R=0.118)  charge= 14.3295  magn=  2.5204
     atom  21 (R=0.118)  charge= 14.4059  magn=  2.1897
     atom  22 (R=0.118)  charge= 14.3295  magn=  2.5204
     atom  23 (R=0.118)  charge= 14.3773  magn=  2.2976
     atom  24 (R=0.118)  charge= 14.3886  magn=  2.2618
     atom  25 (R=0.118)  charge= 14.4059  magn=  2.1897
     atom  26 (R=0.118)  charge= 14.3295  magn=  2.5204
     atom  27 (R=0.118)  charge= 14.3295  magn=  2.5204
     atom  28 (R=0.118)  charge= 14.4059  magn=  2.1897
     atom  29 (R=0.118)  charge= 14.3886  magn=  2.2618
     atom  30 (R=0.118)  charge= 14.3773  magn=  2.2976
     atom  31 (R=0.118)  charge= 14.3886  magn=  2.2618
     atom  32 (R=0.118)  charge= 14.4059  magn=  2.1897
     atom  33 (R=0.118)  charge= 14.3886  magn=  2.2618
     atom  34 (R=0.118)  charge= 14.3773  magn=  2.2976
     atom  35 (R=0.118)  charge= 14.3811  magn=  2.2666
     atom  36 (R=0.118)  charge= 14.3730  magn=  2.3548
     atom  37 (R=0.118)  charge= 14.3886  magn=  2.2618
     atom  38 (R=0.118)  charge= 14.3773  magn=  2.2976
     atom  39 (R=0.118)  charge= 14.3886  magn=  2.2618
     atom  40 (R=0.118)  charge= 14.3730  magn=  2.3548
     atom  41 (R=0.118)  charge= 14.3811  magn=  2.2666
     atom  42 (R=0.118)  charge= 14.3773  magn=  2.2976
     atom  43 (R=0.118)  charge= 14.3886  magn=  2.2618
[...]
     atom   40 type  1   force =     2.17395507   -2.17395507    2.17395507
     atom   41 type  1   force =    -0.00000000   -1.07490831   -0.00000000
     atom   42 type  1   force =     3.18771319    0.00000000   -3.18771319
     atom   43 type  1   force =     0.00000000    0.99664089   -0.99664089
     atom   44 type  1   force =    11.60327248    0.00000000    0.00000000
     atom   45 type  1   force =     0.00000000    0.99664089    0.99664089
     atom   46 type  1   force =     3.18771319    0.00000000    3.18771319
     atom   47 type  1   force =     0.00000000    1.07490831    0.00000000
     atom   48 type  1   force =     2.17395507    2.17395507   -2.17395507
     atom   49 type  1   force =     0.00000000    0.00000000   -1.07490831
     atom   50 type  1   force =     3.18771319    3.18771319    0.00000000
     atom   51 type  1   force =     0.00000000    0.00000000    1.07490831
     atom   52 type  1   force =     2.17395507    2.17395507    2.17395507
     atom   53 type  1   force =     0.00000000    0.00000000    0.00000000
     The core correction contribution to forces
     atom    1 type  1   force =     0.00057334    0.00057334    0.00057334
     atom    2 type  1   force =     0.00123366    0.00123366    0.00123366
     atom    3 type  1   force =     0.00046410    0.00046410   -0.00000000
     atom    4 type  1   force =     0.00123366    0.00123366   -0.00123366
     atom    5 type  1   force =     0.00057334    0.00057334   -0.00057334
     atom    6 type  1   force =    -0.00002308   -0.00002308    0.00000000
     atom    7 type  1   force =     0.00046410   -0.00000000    0.00046410
     atom    8 type  1   force =     0.00123366   -0.00123366    0.00123366
     atom    9 type  1   force =    -0.00162182   -0.00000000   -0.00000000
     atom   10 type  1   force =     0.00123366   -0.00123366   -0.00123366
     atom   11 type  1   force =     0.00046410   -0.00000000   -0.00046410
     atom   12 type  1   force =    -0.00002308    0.00002308    0.00000000
     atom   13 type  1   force =     0.00057334   -0.00057334    0.00057334
     atom   14 type  1   force =    -0.00002308    0.00000000   -0.00002308
     atom   15 type  1   force =     0.00046410   -0.00046410   -0.00000000
     atom   16 type  1   force =    -0.00002308    0.00000000    0.00002308
     atom   17 type  1   force =     0.00057334   -0.00057334   -0.00057334
     atom   18 type  1   force =    -0.00002684    0.00000000    0.00000000
     atom   19 type  1   force =    -0.00000000    0.00046410    0.00046410
     atom   20 type  1   force =    -0.00123366    0.00123366    0.00123366
     atom   21 type  1   force =     0.00000000   -0.00162182   -0.00000000
     atom   22 type  1   force =    -0.00123366    0.00123366   -0.00123366
     atom   23 type  1   force =    -0.00000000    0.00046410   -0.00046410
     atom   24 type  1   force =     0.00002308   -0.00002308    0.00000000
     atom   25 type  1   force =    -0.00000000   -0.00000000   -0.00162182
     atom   26 type  1   force =    -0.00123366   -0.00123366    0.00123366
     atom   27 type  1   force =    -0.00123366   -0.00123366   -0.00123366
     atom   28 type  1   force =    -0.00000000   -0.00000000    0.00162182
     atom   29 type  1   force =     0.00002308    0.00002308    0.00000000
     atom   30 type  1   force =    -0.00000000   -0.00046410    0.00046410
     atom   31 type  1   force =     0.00002308    0.00000000   -0.00002308
     atom   32 type  1   force =    -0.00000000    0.00162182   -0.00000000
     atom   33 type  1   force =     0.00002308    0.00000000    0.00002308
     atom   34 type  1   force =    -0.00000000   -0.00046410   -0.00046410
     atom   35 type  1   force =     0.00002684    0.00000000    0.00000000
     atom   36 type  1   force =    -0.00057334    0.00057334    0.00057334
     atom   37 type  1   force =     0.00000000   -0.00002308   -0.00002308
     atom   38 type  1   force =    -0.00046410    0.00046410   -0.00000000
     atom   39 type  1   force =     0.00000000   -0.00002308    0.00002308
     atom   40 type  1   force =    -0.00057334    0.00057334   -0.00057334
     atom   41 type  1   force =     0.00000000   -0.00002684    0.00000000
     atom   42 type  1   force =    -0.00046410   -0.00000000    0.00046410
     atom   43 type  1   force =     0.00000000    0.00002308   -0.00002308
     atom   44 type  1   force =     0.00162182    0.00000000   -0.00000000
     atom   45 type  1   force =     0.00000000    0.00002308    0.00002308
     atom   46 type  1   force =    -0.00046410   -0.00000000   -0.00046410
     atom   47 type  1   force =     0.00000000    0.00002684    0.00000000
     atom   48 type  1   force =    -0.00057334   -0.00057334    0.00057334
     atom   49 type  1   force =     0.00000000    0.00000000   -0.00002684
     atom   50 type  1   force =    -0.00046410   -0.00046410   -0.00000000
     atom   51 type  1   force =     0.00000000    0.00000000    0.00002684
     atom   52 type  1   force =    -0.00057334   -0.00057334   -0.00057334
     atom   53 type  1   force =     0.00000000    0.00000000    0.00000000
     The Hubbard contrib.    to forces
     atom    1 type  1   force =     0.00000000    0.00000000    0.00000000
     atom    2 type  1   force =     0.00000000    0.00000000    0.00000000
     atom    3 type  1   force =     0.00000000    0.00000000    0.00000000
     atom    4 type  1   force =     0.00000000    0.00000000    0.00000000
     atom    5 type  1   force =     0.00000000    0.00000000    0.00000000
     atom    6 type  1   force =     0.00000000    0.00000000    0.00000000
     atom    7 type  1   force =     0.00000000    0.00000000    0.00000000
     atom    8 type  1   force =     0.00000000    0.00000000    0.00000000
     atom    9 type  1   force =     0.00000000    0.00000000    0.00000000
     atom   10 type  1   force =     0.00000000    0.00000000    0.00000000
     atom   11 type  1   force =     0.00000000    0.00000000    0.00000000
     atom   12 type  1   force =     0.00000000    0.00000000    0.00000000
     atom   13 type  1   force =     0.00000000    0.00000000    0.00000000
     atom   14 type  1   force =     0.00000000    0.00000000    0.00000000
     atom   15 type  1   force =     0.00000000    0.00000000    0.00000000
     atom   16 type  1   force =     0.00000000    0.00000000    0.00000000
     atom   17 type  1   force =     0.00000000    0.00000000    0.00000000
     atom   18 type  1   force =     0.00000000    0.00000000    0.00000000
     atom   19 type  1   force =     0.00000000    0.00000000    0.00000000
     atom   20 type  1   force =     0.00000000    0.00000000    0.00000000
     atom   21 type  1   force =     0.00000000    0.00000000    0.00000000
     atom   22 type  1   force =     0.00000000    0.00000000    0.00000000
     atom   23 type  1   force =     0.00000000    0.00000000    0.00000000
     atom   24 type  1   force =     0.00000000    0.00000000    0.00000000
     atom   25 type  1   force =     0.00000000    0.00000000    0.00000000
     atom   26 type  1   force =     0.00000000    0.00000000    0.00000000
     atom   27 type  1   force =     0.00000000    0.00000000    0.00000000
     atom   28 type  1   force =     0.00000000    0.00000000    0.00000000
     atom   29 type  1   force =     0.00000000    0.00000000    0.00000000
     atom   30 type  1   force =     0.00000000    0.00000000    0.00000000
     atom   31 type  1   force =     0.00000000    0.00000000    0.00000000
     atom   32 type  1   force =     0.00000000    0.00000000    0.00000000
     atom   33 type  1   force =     0.00000000    0.00000000    0.00000000
     atom   34 type  1   force =     0.00000000    0.00000000    0.00000000
     atom   35 type  1   force =     0.00000000    0.00000000    0.00000000
     atom   36 type  1   force =     0.00000000    0.00000000    0.00000000
     atom   37 type  1   force =     0.00000000    0.00000000    0.00000000
     atom   38 type  1   force =     0.00000000    0.00000000    0.00000000
     atom   39 type  1   force =     0.00000000    0.00000000    0.00000000
     atom   40 type  1   force =     0.00000000    0.00000000    0.00000000
     atom   41 type  1   force =     0.00000000    0.00000000    0.00000000
     atom   42 type  1   force =     0.00000000    0.00000000    0.00000000
     atom   43 type  1   force =     0.00000000    0.00000000    0.00000000
     atom   44 type  1   force =     0.00000000    0.00000000    0.00000000
     atom   45 type  1   force =     0.00000000    0.00000000    0.00000000
     atom   46 type  1   force =     0.00000000    0.00000000    0.00000000
     atom   47 type  1   force =     0.00000000    0.00000000    0.00000000
     atom   48 type  1   force =     0.00000000    0.00000000    0.00000000
     atom   49 type  1   force =     0.00000000    0.00000000    0.00000000
     atom   50 type  1   force =     0.00000000    0.00000000    0.00000000
     atom   51 type  1   force =     0.00000000    0.00000000    0.00000000
     atom   52 type  1   force =     0.00000000    0.00000000    0.00000000
     atom   53 type  1   force =     0.00000000    0.00000000    0.00000000
     The SCF correction term to forces
     atom    1 type  1   force =     0.00006208    0.00006208    0.00006208
     atom    2 type  1   force =    -0.00000757   -0.00000757   -0.00000757
     atom    3 type  1   force =     0.00000320    0.00000320    0.00000000
     atom    4 type  1   force =    -0.00000757   -0.00000757    0.00000757
     atom    5 type  1   force =     0.00006208    0.00006208   -0.00006208
     atom    6 type  1   force =     0.00002532    0.00002532    0.00000000
     atom    7 type  1   force =     0.00000320   -0.00000000    0.00000320
     atom    8 type  1   force =    -0.00000757    0.00000757   -0.00000757
     atom    9 type  1   force =    -0.00000086   -0.00000000    0.00000000
     atom   10 type  1   force =    -0.00000757    0.00000757    0.00000757
     atom   11 type  1   force =     0.00000320    0.00000000   -0.00000320
     atom   12 type  1   force =     0.00002532   -0.00002532   -0.00000000
     atom   13 type  1   force =     0.00006208   -0.00006208    0.00006208
     atom   14 type  1   force =     0.00002532   -0.00000000    0.00002532
     atom   15 type  1   force =     0.00000320   -0.00000320    0.00000000
     atom   16 type  1   force =     0.00002532   -0.00000000   -0.00002532
     atom   17 type  1   force =     0.00006208   -0.00006208   -0.00006208
     atom   18 type  1   force =     0.00009998   -0.00000000    0.00000000
     atom   19 type  1   force =     0.00000000    0.00000320    0.00000320
     atom   20 type  1   force =     0.00000757   -0.00000757   -0.00000757
     atom   21 type  1   force =     0.00000000   -0.00000086    0.00000000
     atom   22 type  1   force =     0.00000757   -0.00000757    0.00000757
     atom   23 type  1   force =    -0.00000000    0.00000320   -0.00000320
     atom   24 type  1   force =    -0.00002532    0.00002532    0.00000000
     atom   25 type  1   force =     0.00000000    0.00000000   -0.00000086
     atom   26 type  1   force =     0.00000757    0.00000757   -0.00000757
     atom   27 type  1   force =     0.00000757    0.00000757    0.00000757
     atom   28 type  1   force =     0.00000000   -0.00000000    0.00000086
     atom   29 type  1   force =    -0.00002532   -0.00002532    0.00000000
     atom   30 type  1   force =    -0.00000000   -0.00000320    0.00000320
     atom   31 type  1   force =    -0.00002532   -0.00000000    0.00002532
     atom   32 type  1   force =    -0.00000000    0.00000086   -0.00000000
     atom   33 type  1   force =    -0.00002532   -0.00000000   -0.00002532
     atom   34 type  1   force =    -0.00000000   -0.00000320   -0.00000320
     atom   35 type  1   force =    -0.00009998    0.00000000   -0.00000000
     atom   36 type  1   force =    -0.00006208    0.00006208    0.00006208
     atom   37 type  1   force =     0.00000000    0.00002532    0.00002532
     atom   38 type  1   force =    -0.00000320    0.00000320    0.00000000
     atom   39 type  1   force =     0.00000000    0.00002532   -0.00002532
     atom   40 type  1   force =    -0.00006208    0.00006208   -0.00006208
     atom   41 type  1   force =    -0.00000000    0.00009998    0.00000000
     atom   42 type  1   force =    -0.00000320   -0.00000000    0.00000320
     atom   43 type  1   force =    -0.00000000   -0.00002532    0.00002532
     atom   44 type  1   force =     0.00000086   -0.00000000   -0.00000000
     atom   45 type  1   force =    -0.00000000   -0.00002532   -0.00002532
     atom   46 type  1   force =    -0.00000320   -0.00000000   -0.00000320
     atom   47 type  1   force =    -0.00000000   -0.00009998   -0.00000000
     atom   48 type  1   force =    -0.00006208   -0.00006208    0.00006208
     atom   49 type  1   force =     0.00000000   -0.00000000    0.00009998
     atom   50 type  1   force =    -0.00000320   -0.00000320   -0.00000000
     atom   51 type  1   force =    -0.00000000   -0.00000000   -0.00009998
     atom   52 type  1   force =    -0.00006208   -0.00006208   -0.00006208
     atom   53 type  1   force =    -0.00000000    0.00000000   -0.00000000

     Total force =     0.001169     Total SCF correction =     0.000412
     SCF correction compared to forces is large: reduce conv_thr to get better values


     Computing stress (Cartesian axis) and pressure


     negative rho (up, down):  0.000E+00 1.707E-03
          total   stress  (Ry/bohr**3)                   (kbar)     P=      -70.14
  -0.00047680   0.00000000   0.00000000          -70.14        0.00        0.00
   0.00000000  -0.00047680   0.00000000            0.00      -70.14        0.00
   0.00000000   0.00000000  -0.00047680            0.00        0.00      -70.14

     kinetic stress (kbar)  76979.05      0.00      0.00
                                0.00  76979.05      0.00
                                0.00      0.00  76979.05

     local   stress (kbar)  62765.09     -0.00      0.00
                               -0.00  62765.09     -0.00
                                0.00     -0.00  62765.09

     nonloc. stress (kbar) -60116.86      0.00      0.00
                                0.00 -60116.86      0.00
                                0.00      0.00 -60116.86

     hartree stress (kbar)  41252.27     -0.00     -0.00
                               -0.00  41252.27      0.00
                               -0.00      0.00  41252.27

     exc-cor stress (kbar)  -2451.54      0.00     -0.00
                                0.00  -2451.54      0.00
                               -0.00      0.00  -2451.54

     corecor stress (kbar) -15817.98      0.00      0.00
                                0.00 -15817.98     -0.00
                                0.00     -0.00 -15817.98

     ewald   stress (kbar)-102680.16     -0.00     -0.00
                               -0.00-102680.16     -0.00
                               -0.00     -0.00-102680.16

     hubbard stress (kbar)      0.00      0.00      0.00
                                0.00      0.00      0.00
                                0.00      0.00      0.00

     DFT-D   stress (kbar)      0.00      0.00      0.00
                                0.00      0.00      0.00
                                0.00      0.00      0.00

     XDM     stress (kbar)      0.00      0.00      0.00
                                0.00      0.00      0.00
                                0.00      0.00      0.00

     dft-nl  stress (kbar)      0.00      0.00      0.00
                                0.00      0.00      0.00
                                0.00      0.00      0.00

     TS-vdW  stress (kbar)      0.00      0.00      0.00
                                0.00      0.00      0.00
                                0.00      0.00      0.00

     MDB     stress (kbar)      0.00      0.00      0.00
                                0.00      0.00      0.00
                                0.00      0.00      0.00

     3D-RISM stress (kbar)      0.00      0.00      0.00
                                0.00      0.00      0.00
                                0.00      0.00      0.00

     Message from routine punch:
     Nothing written, as per user request (disk_io='none')

     init_run     :     90.27s CPU     94.01s WALL (       1 calls)
     electrons    :   8273.03s CPU   8666.96s WALL (       1 calls)
     forces       :     35.17s CPU     36.78s WALL (       1 calls)
     stress       :    787.92s CPU    806.77s WALL (       1 calls)

     Called by init_run:
     wfcinit      :     85.85s CPU     88.99s WALL (       1 calls)
     wfcinit:atom :      0.29s CPU      0.53s WALL (      14 calls)
     wfcinit:wfcr :     83.15s CPU     85.84s WALL (      14 calls)
     potinit      :      1.59s CPU      1.90s WALL (       1 calls)
     hinit0       :      1.37s CPU      1.45s WALL (       1 calls)

     Called by electrons:
     c_bands      :   7044.12s CPU   7373.65s WALL (      39 calls)
     sum_band     :   1170.55s CPU   1223.94s WALL (      39 calls)
     v_of_rho     :     40.99s CPU     48.38s WALL (      40 calls)
     v_h          :      1.08s CPU      1.27s WALL (      40 calls)
     v_xc         :     41.79s CPU     49.24s WALL (      42 calls)
     newd         :     12.39s CPU     14.62s WALL (      40 calls)
     mix_rho      :      1.56s CPU      2.04s WALL (      39 calls)

     Called by c_bands:
     init_us_2    :     80.28s CPU     81.94s WALL (    1134 calls)
     cegterg      :   6639.11s CPU   6917.12s WALL (     546 calls)

     Called by sum_band:
     sum_band:wei :      0.37s CPU      0.43s WALL (      39 calls)
     sum_band:loo :   1132.90s CPU   1178.97s WALL (      39 calls)
     sum_band:buf :     11.13s CPU     11.72s WALL (     546 calls)
     sum_band:ini :     25.30s CPU     25.60s WALL (     546 calls)
     sum_band:cal :    281.84s CPU    293.42s WALL (     546 calls)
     sum_band:bec :      3.45s CPU      3.50s WALL (     546 calls)
     addusdens    :     10.87s CPU     13.22s WALL (      39 calls)
                                        0.00s GPU  (      39 calls)
     addusd:skk   :      0.41s CPU      0.57s WALL (      39 calls)
                                        0.00s GPU  (      39 calls)

     Called by *egterg:
     cdiaghg      :    300.76s CPU    338.85s WALL (    1950 calls)
     cegterg:over :    614.29s CPU    637.34s WALL (    1404 calls)
     cegterg:upda :    393.57s CPU    410.80s WALL (    1404 calls)
     cegterg:last :    883.80s CPU    910.13s WALL (    1000 calls)
     cdiaghg:chol :     24.57s CPU     28.58s WALL (    1950 calls)
     cdiaghg:inve :     25.50s CPU     30.04s WALL (    1950 calls)
     cdiaghg:para :     64.44s CPU     78.12s WALL (    3900 calls)
     h_psi        :   3683.99s CPU   3819.54s WALL (    1964 calls)
     s_psi        :    567.54s CPU    573.99s WALL (    1964 calls)
     g_psi        :      7.97s CPU      8.11s WALL (    1404 calls)

     Called by h_psi:
     h_psi:calbec :    606.59s CPU    628.29s WALL (    1964 calls)
     vloc_psi     :   2485.60s CPU   2573.03s WALL (    1964 calls)
     add_vuspsi   :    569.50s CPU    576.04s WALL (    1964 calls)

     General routines
     calbec       :    970.50s CPU   1012.98s WALL (    2580 calls)
     fft          :     23.39s CPU     28.85s WALL (    1038 calls)
     ffts         :      0.98s CPU      1.21s WALL (     158 calls)
     fftw         :   1732.59s CPU   1826.64s WALL ( 1494590 calls)
     interpolate  :      2.52s CPU      2.96s WALL (      80 calls)

     Parallel routines

     PWSCF        :   9186.83s CPU   9606.12s WALL


   This run was terminated on:  17:43:33  29May2025            

=------------------------------------------------------------------------------=
   JOB DONE.
=------------------------------------------------------------------------------=
