
     Program PWSCF v.7.3.1 starts on  3Jun2025 at 17:44: 9 

     This program is part of the open-source Quantum ESPRESSO suite
     for quantum simulation of materials; please cite
         "P. Giannozzi et al., J. Phys.:Condens. Matter 21 395502 (2009);
         "P. Giannozzi et al., J. Phys.:Condens. Matter 29 465901 (2017);
         "P. Giannozzi et al., J. Chem. Phys. 152 154105 (2020);
          URL http://www.quantum-espresso.org", 
     in publications or presentations arising from this work. More details at
     http://www.quantum-espresso.org/quote

     Parallel version (MPI & OpenMP), running on     128 processor cores
     Number of MPI processes:               128
     Threads/MPI process:                     1

     MPI processes distributed on     1 nodes
     433557 MiB available memory on the printing compute node when the environment starts

     Waiting for input...
     Reading input from standard input

     Current dimensions of program PWSCF are:
     Max number of different atomic species (ntypx) = 10
     Max number of k-points (npk) =  40000
     Max angular momentum in pseudopotentials (lmaxx) =  4
     file Fe.pbe-spn-kjpaw_psl.1.0.0.UPF: wavefunction(s)  3P 3D renormalized
     Found identity + (  0.1667  0.1667  0.1667) symmetry
     This is a supercell, fractional translations are disabled
     Message from routine setup:
     using ibrav=0 with symmetry is DISCOURAGED, use correct ibrav instead

     K-points division:     npool     =       8
     R & G space division:  proc/nbgrp/npool/nimage =      16
     Subspace diagonalization in iterative solution of the eigenvalue problem:
     one sub-group per band group will be used
     ELPA distributed-memory algorithm (size of sub-group:  4*  4 procs)


     Parallelization info
     --------------------
     sticks:   dense  smooth     PW     G-vecs:    dense   smooth      PW
     Min        1420     473    126               161001    30976    4292
     Max        1422     475    127               161002    30980    4295
     Sum       22725    7589   2025              2576031   495639   68699

     Using Slab Decomposition



     bravais-lattice index     =            0
     lattice parameter (alat)  =      16.2598  a.u.
     unit-cell volume          =    4298.7603 (a.u.)^3
     number of atoms/cell      =           54
     number of atomic types    =            1
     number of electrons       =       864.00
     number of Kohn-Sham states=          518
     kinetic-energy cutoff     =      90.0000  Ry
     charge density cutoff     =    1080.0000  Ry
     scf convergence threshold =      1.0E-08
     mixing beta               =       0.2000
     number of iterations used =            8  plain     mixing
     energy convergence thresh.=      1.0E-04
     force convergence thresh. =      1.0E-03
     Exchange-correlation= SLA  PW   PBX  PBC
                           (   1   4   3   4   0   0   0)
     nstep                     =           50


     celldm(1)=  16.259770  celldm(2)=   0.000000  celldm(3)=   0.000000
     celldm(4)=   0.000000  celldm(5)=   0.000000  celldm(6)=   0.000000

     crystal axes: (cart. coord. in units of alat)
               a(1) = (   1.000000   0.000000   0.000000 )  
               a(2) = (   0.000000   1.000000   0.000000 )  
               a(3) = (   0.000000   0.000000   1.000000 )  

     reciprocal axes: (cart. coord. in units 2 pi/alat)
               b(1) = (  1.000000  0.000000  0.000000 )  
               b(2) = (  0.000000  1.000000  0.000000 )  
               b(3) = (  0.000000  0.000000  1.000000 )  


     PseudoPot. # 1 for Fe read from file:
     ./pseudo/Fe.pbe-spn-kjpaw_psl.1.0.0.UPF
     MD5 check sum: fc81f059e5c5069939230b1155715ae8
     Pseudo is Projector augmented-wave + core cor, Zval = 16.0
     Generated using &quot;atomic&quot; code by A. Dal Corso  v.6.3
     Shape of augmentation charge: PSQ
     Using radial grid of 1191 points,  6 beta functions with: 
                l(1) =   0
                l(2) =   0
                l(3) =   1
                l(4) =   1
                l(5) =   2
                l(6) =   2
     Q(r) pseudized with 0 coefficients 


     atomic species   valence    mass     pseudopotential
     Fe               16.00    55.84500     Fe( 1.00)

     48 Sym. Ops., with inversion, found


                                    s                        frac. trans.

      isym =  1     identity                                     

 cryst.   s( 1) = (     1          0          0      )
                  (     0          1          0      )
                  (     0          0          1      )

 cart.    s( 1) = (  1.0000000  0.0000000  0.0000000 )
                  (  0.0000000  1.0000000  0.0000000 )
                  (  0.0000000  0.0000000  1.0000000 )


      isym =  2     180 deg rotation - cart. axis [0,0,1]        

 cryst.   s( 2) = (    -1          0          0      )
                  (     0         -1          0      )
                  (     0          0          1      )

 cart.    s( 2) = ( -1.0000000  0.0000000  0.0000000 )
                  (  0.0000000 -1.0000000  0.0000000 )
                  (  0.0000000  0.0000000  1.0000000 )


      isym =  3     180 deg rotation - cart. axis [0,1,0]        

 cryst.   s( 3) = (    -1          0          0      )
                  (     0          1          0      )
                  (     0          0         -1      )

 cart.    s( 3) = ( -1.0000000  0.0000000  0.0000000 )
                  (  0.0000000  1.0000000  0.0000000 )
                  (  0.0000000  0.0000000 -1.0000000 )


      isym =  4     180 deg rotation - cart. axis [1,0,0]        

 cryst.   s( 4) = (     1          0          0      )
                  (     0         -1          0      )
                  (     0          0         -1      )

 cart.    s( 4) = (  1.0000000  0.0000000  0.0000000 )
                  (  0.0000000 -1.0000000  0.0000000 )
                  (  0.0000000  0.0000000 -1.0000000 )


      isym =  5     180 deg rotation - cart. axis [1,1,0]        

 cryst.   s( 5) = (     0          1          0      )
                  (     1          0          0      )
                  (     0          0         -1      )

 cart.    s( 5) = (  0.0000000  1.0000000  0.0000000 )
                  (  1.0000000  0.0000000  0.0000000 )
                  (  0.0000000  0.0000000 -1.0000000 )


      isym =  6     180 deg rotation - cart. axis [1,-1,0]       

 cryst.   s( 6) = (     0         -1          0      )
                  (    -1          0          0      )
                  (     0          0         -1      )

 cart.    s( 6) = (  0.0000000 -1.0000000  0.0000000 )
                  ( -1.0000000  0.0000000  0.0000000 )
                  (  0.0000000  0.0000000 -1.0000000 )


      isym =  7      90 deg rotation - cart. axis [0,0,-1]       

 cryst.   s( 7) = (     0         -1          0      )
                  (     1          0          0      )
                  (     0          0          1      )

 cart.    s( 7) = (  0.0000000  1.0000000  0.0000000 )
                  ( -1.0000000  0.0000000  0.0000000 )
                  (  0.0000000  0.0000000  1.0000000 )


      isym =  8      90 deg rotation - cart. axis [0,0,1]        

 cryst.   s( 8) = (     0          1          0      )
                  (    -1          0          0      )
                  (     0          0          1      )

 cart.    s( 8) = (  0.0000000 -1.0000000  0.0000000 )
                  (  1.0000000  0.0000000  0.0000000 )
                  (  0.0000000  0.0000000  1.0000000 )


      isym =  9     180 deg rotation - cart. axis [1,0,1]        

 cryst.   s( 9) = (     0          0          1      )
                  (     0         -1          0      )
                  (     1          0          0      )

 cart.    s( 9) = (  0.0000000  0.0000000  1.0000000 )
                  (  0.0000000 -1.0000000  0.0000000 )
                  (  1.0000000  0.0000000  0.0000000 )


      isym = 10     180 deg rotation - cart. axis [-1,0,1]       

 cryst.   s(10) = (     0          0         -1      )
                  (     0         -1          0      )
                  (    -1          0          0      )

 cart.    s(10) = (  0.0000000  0.0000000 -1.0000000 )
                  (  0.0000000 -1.0000000  0.0000000 )
                  ( -1.0000000  0.0000000  0.0000000 )


      isym = 11      90 deg rotation - cart. axis [0,1,0]        

 cryst.   s(11) = (     0          0         -1      )
                  (     0          1          0      )
                  (     1          0          0      )

 cart.    s(11) = (  0.0000000  0.0000000  1.0000000 )
                  (  0.0000000  1.0000000  0.0000000 )
                  ( -1.0000000  0.0000000  0.0000000 )


      isym = 12      90 deg rotation - cart. axis [0,-1,0]       

 cryst.   s(12) = (     0          0          1      )
                  (     0          1          0      )
                  (    -1          0          0      )

 cart.    s(12) = (  0.0000000  0.0000000 -1.0000000 )
                  (  0.0000000  1.0000000  0.0000000 )
                  (  1.0000000  0.0000000  0.0000000 )


      isym = 13     180 deg rotation - cart. axis [0,1,1]        

 cryst.   s(13) = (    -1          0          0      )
                  (     0          0          1      )
                  (     0          1          0      )

 cart.    s(13) = ( -1.0000000  0.0000000  0.0000000 )
                  (  0.0000000  0.0000000  1.0000000 )
                  (  0.0000000  1.0000000  0.0000000 )


      isym = 14     180 deg rotation - cart. axis [0,1,-1]       

 cryst.   s(14) = (    -1          0          0      )
                  (     0          0         -1      )
                  (     0         -1          0      )

 cart.    s(14) = ( -1.0000000  0.0000000  0.0000000 )
                  (  0.0000000  0.0000000 -1.0000000 )
                  (  0.0000000 -1.0000000  0.0000000 )


      isym = 15      90 deg rotation - cart. axis [-1,0,0]       

 cryst.   s(15) = (     1          0          0      )
                  (     0          0         -1      )
                  (     0          1          0      )

 cart.    s(15) = (  1.0000000  0.0000000  0.0000000 )
                  (  0.0000000  0.0000000  1.0000000 )
                  (  0.0000000 -1.0000000  0.0000000 )


      isym = 16      90 deg rotation - cart. axis [1,0,0]        

 cryst.   s(16) = (     1          0          0      )
                  (     0          0          1      )
                  (     0         -1          0      )

 cart.    s(16) = (  1.0000000  0.0000000  0.0000000 )
                  (  0.0000000  0.0000000 -1.0000000 )
                  (  0.0000000  1.0000000  0.0000000 )


      isym = 17     120 deg rotation - cart. axis [-1,-1,-1]     

 cryst.   s(17) = (     0          0          1      )
                  (     1          0          0      )
                  (     0          1          0      )

 cart.    s(17) = (  0.0000000  1.0000000  0.0000000 )
                  (  0.0000000  0.0000000  1.0000000 )
                  (  1.0000000  0.0000000  0.0000000 )


      isym = 18     120 deg rotation - cart. axis [-1,1,1]       

 cryst.   s(18) = (     0          0         -1      )
                  (    -1          0          0      )
                  (     0          1          0      )

 cart.    s(18) = (  0.0000000 -1.0000000  0.0000000 )
                  (  0.0000000  0.0000000  1.0000000 )
                  ( -1.0000000  0.0000000  0.0000000 )


      isym = 19     120 deg rotation - cart. axis [1,1,-1]       

 cryst.   s(19) = (     0          0         -1      )
                  (     1          0          0      )
                  (     0         -1          0      )

 cart.    s(19) = (  0.0000000  1.0000000  0.0000000 )
                  (  0.0000000  0.0000000 -1.0000000 )
                  ( -1.0000000  0.0000000  0.0000000 )


      isym = 20     120 deg rotation - cart. axis [1,-1,1]       

 cryst.   s(20) = (     0          0          1      )
                  (    -1          0          0      )
                  (     0         -1          0      )

 cart.    s(20) = (  0.0000000 -1.0000000  0.0000000 )
                  (  0.0000000  0.0000000 -1.0000000 )
                  (  1.0000000  0.0000000  0.0000000 )


      isym = 21     120 deg rotation - cart. axis [1,1,1]        

 cryst.   s(21) = (     0          1          0      )
                  (     0          0          1      )
                  (     1          0          0      )

 cart.    s(21) = (  0.0000000  0.0000000  1.0000000 )
                  (  1.0000000  0.0000000  0.0000000 )
                  (  0.0000000  1.0000000  0.0000000 )


      isym = 22     120 deg rotation - cart. axis [-1,1,-1]      

 cryst.   s(22) = (     0         -1          0      )
                  (     0          0         -1      )
                  (     1          0          0      )

 cart.    s(22) = (  0.0000000  0.0000000  1.0000000 )
                  ( -1.0000000  0.0000000  0.0000000 )
                  (  0.0000000 -1.0000000  0.0000000 )


      isym = 23     120 deg rotation - cart. axis [1,-1,-1]      

 cryst.   s(23) = (     0         -1          0      )
                  (     0          0          1      )
                  (    -1          0          0      )

 cart.    s(23) = (  0.0000000  0.0000000 -1.0000000 )
                  ( -1.0000000  0.0000000  0.0000000 )
                  (  0.0000000  1.0000000  0.0000000 )


      isym = 24     120 deg rotation - cart. axis [-1,-1,1]      

 cryst.   s(24) = (     0          1          0      )
                  (     0          0         -1      )
                  (    -1          0          0      )

 cart.    s(24) = (  0.0000000  0.0000000 -1.0000000 )
                  (  1.0000000  0.0000000  0.0000000 )
                  (  0.0000000 -1.0000000  0.0000000 )


      isym = 25     inversion                                    

 cryst.   s(25) = (    -1          0          0      )
                  (     0         -1          0      )
                  (     0          0         -1      )

 cart.    s(25) = ( -1.0000000  0.0000000  0.0000000 )
                  (  0.0000000 -1.0000000  0.0000000 )
                  (  0.0000000  0.0000000 -1.0000000 )


      isym = 26     inv. 180 deg rotation - cart. axis [0,0,1]   

 cryst.   s(26) = (     1          0          0      )
                  (     0          1          0      )
                  (     0          0         -1      )

 cart.    s(26) = (  1.0000000  0.0000000  0.0000000 )
                  (  0.0000000  1.0000000  0.0000000 )
                  (  0.0000000  0.0000000 -1.0000000 )


      isym = 27     inv. 180 deg rotation - cart. axis [0,1,0]   

 cryst.   s(27) = (     1          0          0      )
                  (     0         -1          0      )
                  (     0          0          1      )

 cart.    s(27) = (  1.0000000  0.0000000  0.0000000 )
                  (  0.0000000 -1.0000000  0.0000000 )
                  (  0.0000000  0.0000000  1.0000000 )


      isym = 28     inv. 180 deg rotation - cart. axis [1,0,0]   

 cryst.   s(28) = (    -1          0          0      )
                  (     0          1          0      )
                  (     0          0          1      )

 cart.    s(28) = ( -1.0000000  0.0000000  0.0000000 )
                  (  0.0000000  1.0000000  0.0000000 )
                  (  0.0000000  0.0000000  1.0000000 )


      isym = 29     inv. 180 deg rotation - cart. axis [1,1,0]   

 cryst.   s(29) = (     0         -1          0      )
                  (    -1          0          0      )
                  (     0          0          1      )

 cart.    s(29) = (  0.0000000 -1.0000000  0.0000000 )
                  ( -1.0000000  0.0000000  0.0000000 )
                  (  0.0000000  0.0000000  1.0000000 )


      isym = 30     inv. 180 deg rotation - cart. axis [1,-1,0]  

 cryst.   s(30) = (     0          1          0      )
                  (     1          0          0      )
                  (     0          0          1      )

 cart.    s(30) = (  0.0000000  1.0000000  0.0000000 )
                  (  1.0000000  0.0000000  0.0000000 )
                  (  0.0000000  0.0000000  1.0000000 )


      isym = 31     inv.  90 deg rotation - cart. axis [0,0,-1]  

 cryst.   s(31) = (     0          1          0      )
                  (    -1          0          0      )
                  (     0          0         -1      )

 cart.    s(31) = (  0.0000000 -1.0000000  0.0000000 )
                  (  1.0000000  0.0000000  0.0000000 )
                  (  0.0000000  0.0000000 -1.0000000 )


      isym = 32     inv.  90 deg rotation - cart. axis [0,0,1]   

 cryst.   s(32) = (     0         -1          0      )
                  (     1          0          0      )
                  (     0          0         -1      )

 cart.    s(32) = (  0.0000000  1.0000000  0.0000000 )
                  ( -1.0000000  0.0000000  0.0000000 )
                  (  0.0000000  0.0000000 -1.0000000 )


      isym = 33     inv. 180 deg rotation - cart. axis [1,0,1]   

 cryst.   s(33) = (     0          0         -1      )
                  (     0          1          0      )
                  (    -1          0          0      )

 cart.    s(33) = (  0.0000000  0.0000000 -1.0000000 )
                  (  0.0000000  1.0000000  0.0000000 )
                  ( -1.0000000  0.0000000  0.0000000 )


      isym = 34     inv. 180 deg rotation - cart. axis [-1,0,1]  

 cryst.   s(34) = (     0          0          1      )
                  (     0          1          0      )
                  (     1          0          0      )

 cart.    s(34) = (  0.0000000  0.0000000  1.0000000 )
                  (  0.0000000  1.0000000  0.0000000 )
                  (  1.0000000  0.0000000  0.0000000 )


      isym = 35     inv.  90 deg rotation - cart. axis [0,1,0]   

 cryst.   s(35) = (     0          0          1      )
                  (     0         -1          0      )
                  (    -1          0          0      )

 cart.    s(35) = (  0.0000000  0.0000000 -1.0000000 )
                  (  0.0000000 -1.0000000  0.0000000 )
                  (  1.0000000  0.0000000  0.0000000 )


      isym = 36     inv.  90 deg rotation - cart. axis [0,-1,0]  

 cryst.   s(36) = (     0          0         -1      )
                  (     0         -1          0      )
                  (     1          0          0      )

 cart.    s(36) = (  0.0000000  0.0000000  1.0000000 )
                  (  0.0000000 -1.0000000  0.0000000 )
                  ( -1.0000000  0.0000000  0.0000000 )


      isym = 37     inv. 180 deg rotation - cart. axis [0,1,1]   

 cryst.   s(37) = (     1          0          0      )
                  (     0          0         -1      )
                  (     0         -1          0      )

 cart.    s(37) = (  1.0000000  0.0000000  0.0000000 )
                  (  0.0000000  0.0000000 -1.0000000 )
                  (  0.0000000 -1.0000000  0.0000000 )


      isym = 38     inv. 180 deg rotation - cart. axis [0,1,-1]  

 cryst.   s(38) = (     1          0          0      )
                  (     0          0          1      )
                  (     0          1          0      )

 cart.    s(38) = (  1.0000000  0.0000000  0.0000000 )
                  (  0.0000000  0.0000000  1.0000000 )
                  (  0.0000000  1.0000000  0.0000000 )


      isym = 39     inv.  90 deg rotation - cart. axis [-1,0,0]  

 cryst.   s(39) = (    -1          0          0      )
                  (     0          0          1      )
                  (     0         -1          0      )

 cart.    s(39) = ( -1.0000000  0.0000000  0.0000000 )
                  (  0.0000000  0.0000000 -1.0000000 )
                  (  0.0000000  1.0000000  0.0000000 )


      isym = 40     inv.  90 deg rotation - cart. axis [1,0,0]   

 cryst.   s(40) = (    -1          0          0      )
                  (     0          0         -1      )
                  (     0          1          0      )

 cart.    s(40) = ( -1.0000000  0.0000000  0.0000000 )
                  (  0.0000000  0.0000000  1.0000000 )
                  (  0.0000000 -1.0000000  0.0000000 )


      isym = 41     inv. 120 deg rotation - cart. axis [-1,-1,-1]

 cryst.   s(41) = (     0          0         -1      )
                  (    -1          0          0      )
                  (     0         -1          0      )

 cart.    s(41) = (  0.0000000 -1.0000000  0.0000000 )
                  (  0.0000000  0.0000000 -1.0000000 )
                  ( -1.0000000  0.0000000  0.0000000 )


      isym = 42     inv. 120 deg rotation - cart. axis [-1,1,1]  

 cryst.   s(42) = (     0          0          1      )
                  (     1          0          0      )
                  (     0         -1          0      )

 cart.    s(42) = (  0.0000000  1.0000000  0.0000000 )
                  (  0.0000000  0.0000000 -1.0000000 )
                  (  1.0000000  0.0000000  0.0000000 )


      isym = 43     inv. 120 deg rotation - cart. axis [1,1,-1]  

 cryst.   s(43) = (     0          0          1      )
                  (    -1          0          0      )
                  (     0          1          0      )

 cart.    s(43) = (  0.0000000 -1.0000000  0.0000000 )
                  (  0.0000000  0.0000000  1.0000000 )
                  (  1.0000000  0.0000000  0.0000000 )


      isym = 44     inv. 120 deg rotation - cart. axis [1,-1,1]  

 cryst.   s(44) = (     0          0         -1      )
                  (     1          0          0      )
                  (     0          1          0      )

 cart.    s(44) = (  0.0000000  1.0000000  0.0000000 )
                  (  0.0000000  0.0000000  1.0000000 )
                  ( -1.0000000  0.0000000  0.0000000 )


      isym = 45     inv. 120 deg rotation - cart. axis [1,1,1]   

 cryst.   s(45) = (     0         -1          0      )
                  (     0          0         -1      )
                  (    -1          0          0      )

 cart.    s(45) = (  0.0000000  0.0000000 -1.0000000 )
                  ( -1.0000000  0.0000000  0.0000000 )
                  (  0.0000000 -1.0000000  0.0000000 )


      isym = 46     inv. 120 deg rotation - cart. axis [-1,1,-1] 

 cryst.   s(46) = (     0          1          0      )
                  (     0          0          1      )
                  (    -1          0          0      )

 cart.    s(46) = (  0.0000000  0.0000000 -1.0000000 )
                  (  1.0000000  0.0000000  0.0000000 )
                  (  0.0000000  1.0000000  0.0000000 )


      isym = 47     inv. 120 deg rotation - cart. axis [1,-1,-1] 

 cryst.   s(47) = (     0          1          0      )
                  (     0          0         -1      )
                  (     1          0          0      )

 cart.    s(47) = (  0.0000000  0.0000000  1.0000000 )
                  (  1.0000000  0.0000000  0.0000000 )
                  (  0.0000000 -1.0000000  0.0000000 )


      isym = 48     inv. 120 deg rotation - cart. axis [-1,-1,1] 

 cryst.   s(48) = (     0         -1          0      )
                  (     0          0          1      )
                  (     1          0          0      )

 cart.    s(48) = (  0.0000000  0.0000000  1.0000000 )
                  ( -1.0000000  0.0000000  0.0000000 )
                  (  0.0000000  1.0000000  0.0000000 )


   Cartesian axes

     site n.     atom                  positions (alat units)
         1        Fe     tau(   1) = (   0.0000000   0.0000000   0.0000000  )
         2        Fe     tau(   2) = (   0.1666667   0.1666667   0.1666667  )
         3        Fe     tau(   3) = (   0.0000000   0.0000000   0.3333333  )
         4        Fe     tau(   4) = (   0.1666667   0.1666667   0.5000000  )
         5        Fe     tau(   5) = (   0.0000000   0.0000000   0.6666667  )
         6        Fe     tau(   6) = (   0.1666667   0.1666667   0.8333333  )
         7        Fe     tau(   7) = (   0.0000000   0.3333333   0.0000000  )
         8        Fe     tau(   8) = (   0.1666667   0.5000000   0.1666667  )
         9        Fe     tau(   9) = (   0.0000000   0.3333333   0.3333333  )
        10        Fe     tau(  10) = (   0.1666667   0.5000000   0.5000000  )
        11        Fe     tau(  11) = (   0.0000000   0.3333333   0.6666667  )
        12        Fe     tau(  12) = (   0.1666667   0.5000000   0.8333333  )
        13        Fe     tau(  13) = (   0.0000000   0.6666667   0.0000000  )
        14        Fe     tau(  14) = (   0.1666667   0.8333333   0.1666667  )
        15        Fe     tau(  15) = (   0.0000000   0.6666667   0.3333333  )
        16        Fe     tau(  16) = (   0.1666667   0.8333333   0.5000000  )
        17        Fe     tau(  17) = (   0.0000000   0.6666667   0.6666667  )
        18        Fe     tau(  18) = (   0.1666667   0.8333333   0.8333333  )
        19        Fe     tau(  19) = (   0.3333333   0.0000000   0.0000000  )
        20        Fe     tau(  20) = (   0.5000000   0.1666667   0.1666667  )
        21        Fe     tau(  21) = (   0.3333333   0.0000000   0.3333333  )
        22        Fe     tau(  22) = (   0.5000000   0.1666667   0.5000000  )
        23        Fe     tau(  23) = (   0.3333333   0.0000000   0.6666667  )
        24        Fe     tau(  24) = (   0.5000000   0.1666667   0.8333333  )
        25        Fe     tau(  25) = (   0.3333333   0.3333333   0.0000000  )
        26        Fe     tau(  26) = (   0.5000000   0.5000000   0.1666667  )
        27        Fe     tau(  27) = (   0.3333333   0.3333333   0.3333333  )
        28        Fe     tau(  28) = (   0.5000000   0.5000000   0.5000000  )
        29        Fe     tau(  29) = (   0.3333333   0.3333333   0.6666667  )
        30        Fe     tau(  30) = (   0.5000000   0.5000000   0.8333333  )
        31        Fe     tau(  31) = (   0.3333333   0.6666667   0.0000000  )
        32        Fe     tau(  32) = (   0.5000000   0.8333333   0.1666667  )
        33        Fe     tau(  33) = (   0.3333333   0.6666667   0.3333333  )
        34        Fe     tau(  34) = (   0.5000000   0.8333333   0.5000000  )
        35        Fe     tau(  35) = (   0.3333333   0.6666667   0.6666667  )
        36        Fe     tau(  36) = (   0.5000000   0.8333333   0.8333333  )
        37        Fe     tau(  37) = (   0.6666667   0.0000000   0.0000000  )
        38        Fe     tau(  38) = (   0.8333333   0.1666667   0.1666667  )
        39        Fe     tau(  39) = (   0.6666667   0.0000000   0.3333333  )
        40        Fe     tau(  40) = (   0.8333333   0.1666667   0.5000000  )
        41        Fe     tau(  41) = (   0.6666667   0.0000000   0.6666667  )
        42        Fe     tau(  42) = (   0.8333333   0.1666667   0.8333333  )
        43        Fe     tau(  43) = (   0.6666667   0.3333333   0.0000000  )
        44        Fe     tau(  44) = (   0.8333333   0.5000000   0.1666667  )
        45        Fe     tau(  45) = (   0.6666667   0.3333333   0.3333333  )
        46        Fe     tau(  46) = (   0.8333333   0.5000000   0.5000000  )
        47        Fe     tau(  47) = (   0.6666667   0.3333333   0.6666667  )
        48        Fe     tau(  48) = (   0.8333333   0.5000000   0.8333333  )
        49        Fe     tau(  49) = (   0.6666667   0.6666667   0.0000000  )
        50        Fe     tau(  50) = (   0.8333333   0.8333333   0.1666667  )
        51        Fe     tau(  51) = (   0.6666667   0.6666667   0.3333333  )
        52        Fe     tau(  52) = (   0.8333333   0.8333333   0.5000000  )
        53        Fe     tau(  53) = (   0.6666667   0.6666667   0.6666667  )
        54        Fe     tau(  54) = (   0.8333333   0.8333333   0.8333333  )

   Crystallographic axes

     site n.     atom                  positions (cryst. coord.)
         1        Fe     tau(   1) = (  0.0000000  0.0000000  0.0000000  )
         2        Fe     tau(   2) = (  0.1666667  0.1666667  0.1666667  )
         3        Fe     tau(   3) = (  0.0000000  0.0000000  0.3333333  )
         4        Fe     tau(   4) = (  0.1666667  0.1666667  0.5000000  )
         5        Fe     tau(   5) = (  0.0000000  0.0000000  0.6666667  )
         6        Fe     tau(   6) = (  0.1666667  0.1666667  0.8333333  )
         7        Fe     tau(   7) = (  0.0000000  0.3333333  0.0000000  )
         8        Fe     tau(   8) = (  0.1666667  0.5000000  0.1666667  )
         9        Fe     tau(   9) = (  0.0000000  0.3333333  0.3333333  )
        10        Fe     tau(  10) = (  0.1666667  0.5000000  0.5000000  )
        11        Fe     tau(  11) = (  0.0000000  0.3333333  0.6666667  )
        12        Fe     tau(  12) = (  0.1666667  0.5000000  0.8333333  )
        13        Fe     tau(  13) = (  0.0000000  0.6666667  0.0000000  )
        14        Fe     tau(  14) = (  0.1666667  0.8333333  0.1666667  )
        15        Fe     tau(  15) = (  0.0000000  0.6666667  0.3333333  )
        16        Fe     tau(  16) = (  0.1666667  0.8333333  0.5000000  )
        17        Fe     tau(  17) = (  0.0000000  0.6666667  0.6666667  )
        18        Fe     tau(  18) = (  0.1666667  0.8333333  0.8333333  )
        19        Fe     tau(  19) = (  0.3333333  0.0000000  0.0000000  )
        20        Fe     tau(  20) = (  0.5000000  0.1666667  0.1666667  )
        21        Fe     tau(  21) = (  0.3333333  0.0000000  0.3333333  )
        22        Fe     tau(  22) = (  0.5000000  0.1666667  0.5000000  )
        23        Fe     tau(  23) = (  0.3333333  0.0000000  0.6666667  )
        24        Fe     tau(  24) = (  0.5000000  0.1666667  0.8333333  )
        25        Fe     tau(  25) = (  0.3333333  0.3333333  0.0000000  )
        26        Fe     tau(  26) = (  0.5000000  0.5000000  0.1666667  )
        27        Fe     tau(  27) = (  0.3333333  0.3333333  0.3333333  )
        28        Fe     tau(  28) = (  0.5000000  0.5000000  0.5000000  )
        29        Fe     tau(  29) = (  0.3333333  0.3333333  0.6666667  )
        30        Fe     tau(  30) = (  0.5000000  0.5000000  0.8333333  )
        31        Fe     tau(  31) = (  0.3333333  0.6666667  0.0000000  )
        32        Fe     tau(  32) = (  0.5000000  0.8333333  0.1666667  )
        33        Fe     tau(  33) = (  0.3333333  0.6666667  0.3333333  )
        34        Fe     tau(  34) = (  0.5000000  0.8333333  0.5000000  )
        35        Fe     tau(  35) = (  0.3333333  0.6666667  0.6666667  )
        36        Fe     tau(  36) = (  0.5000000  0.8333333  0.8333333  )
        37        Fe     tau(  37) = (  0.6666667  0.0000000  0.0000000  )
        38        Fe     tau(  38) = (  0.8333333  0.1666667  0.1666667  )
        39        Fe     tau(  39) = (  0.6666667  0.0000000  0.3333333  )
        40        Fe     tau(  40) = (  0.8333333  0.1666667  0.5000000  )
        41        Fe     tau(  41) = (  0.6666667  0.0000000  0.6666667  )
        42        Fe     tau(  42) = (  0.8333333  0.1666667  0.8333333  )
        43        Fe     tau(  43) = (  0.6666667  0.3333333  0.0000000  )
        44        Fe     tau(  44) = (  0.8333333  0.5000000  0.1666667  )
        45        Fe     tau(  45) = (  0.6666667  0.3333333  0.3333333  )
        46        Fe     tau(  46) = (  0.8333333  0.5000000  0.5000000  )
        47        Fe     tau(  47) = (  0.6666667  0.3333333  0.6666667  )
        48        Fe     tau(  48) = (  0.8333333  0.5000000  0.8333333  )
        49        Fe     tau(  49) = (  0.6666667  0.6666667  0.0000000  )
        50        Fe     tau(  50) = (  0.8333333  0.8333333  0.1666667  )
        51        Fe     tau(  51) = (  0.6666667  0.6666667  0.3333333  )
        52        Fe     tau(  52) = (  0.8333333  0.8333333  0.5000000  )
        53        Fe     tau(  53) = (  0.6666667  0.6666667  0.6666667  )
        54        Fe     tau(  54) = (  0.8333333  0.8333333  0.8333333  )

     number of k points=    56  Marzari-Vanderbilt smearing, width (Ry)=  0.0100
                       cart. coord. in units 2pi/alat
        k(    1) = (   0.0000000   0.0000000   0.0000000), wk =   0.0020000
        k(    2) = (   0.0000000   0.0000000   0.1000000), wk =   0.0120000
        k(    3) = (   0.0000000   0.0000000   0.2000000), wk =   0.0120000
        k(    4) = (   0.0000000   0.0000000   0.3000000), wk =   0.0120000
        k(    5) = (   0.0000000   0.0000000   0.4000000), wk =   0.0120000
        k(    6) = (   0.0000000   0.0000000  -0.5000000), wk =   0.0060000
        k(    7) = (   0.0000000   0.1000000   0.1000000), wk =   0.0240000
        k(    8) = (   0.0000000   0.1000000   0.2000000), wk =   0.0480000
        k(    9) = (   0.0000000   0.1000000   0.3000000), wk =   0.0480000
        k(   10) = (   0.0000000   0.1000000   0.4000000), wk =   0.0480000
        k(   11) = (   0.0000000   0.1000000  -0.5000000), wk =   0.0240000
        k(   12) = (   0.0000000   0.2000000   0.2000000), wk =   0.0240000
        k(   13) = (   0.0000000   0.2000000   0.3000000), wk =   0.0480000
        k(   14) = (   0.0000000   0.2000000   0.4000000), wk =   0.0480000
        k(   15) = (   0.0000000   0.2000000  -0.5000000), wk =   0.0240000
        k(   16) = (   0.0000000   0.3000000   0.3000000), wk =   0.0240000
        k(   17) = (   0.0000000   0.3000000   0.4000000), wk =   0.0480000
        k(   18) = (   0.0000000   0.3000000  -0.5000000), wk =   0.0240000
        k(   19) = (   0.0000000   0.4000000   0.4000000), wk =   0.0240000
        k(   20) = (   0.0000000   0.4000000  -0.5000000), wk =   0.0240000
        k(   21) = (   0.0000000  -0.5000000  -0.5000000), wk =   0.0060000
        k(   22) = (   0.1000000   0.1000000   0.1000000), wk =   0.0160000
        k(   23) = (   0.1000000   0.1000000   0.2000000), wk =   0.0480000
        k(   24) = (   0.1000000   0.1000000   0.3000000), wk =   0.0480000
        k(   25) = (   0.1000000   0.1000000   0.4000000), wk =   0.0480000
        k(   26) = (   0.1000000   0.1000000  -0.5000000), wk =   0.0240000
        k(   27) = (   0.1000000   0.2000000   0.2000000), wk =   0.0480000
        k(   28) = (   0.1000000   0.2000000   0.3000000), wk =   0.0960000
        k(   29) = (   0.1000000   0.2000000   0.4000000), wk =   0.0960000
        k(   30) = (   0.1000000   0.2000000  -0.5000000), wk =   0.0480000
        k(   31) = (   0.1000000   0.3000000   0.3000000), wk =   0.0480000
        k(   32) = (   0.1000000   0.3000000   0.4000000), wk =   0.0960000
        k(   33) = (   0.1000000   0.3000000  -0.5000000), wk =   0.0480000
        k(   34) = (   0.1000000   0.4000000   0.4000000), wk =   0.0480000
        k(   35) = (   0.1000000   0.4000000  -0.5000000), wk =   0.0480000
        k(   36) = (   0.1000000  -0.5000000  -0.5000000), wk =   0.0120000
        k(   37) = (   0.2000000   0.2000000   0.2000000), wk =   0.0160000
        k(   38) = (   0.2000000   0.2000000   0.3000000), wk =   0.0480000
        k(   39) = (   0.2000000   0.2000000   0.4000000), wk =   0.0480000
        k(   40) = (   0.2000000   0.2000000  -0.5000000), wk =   0.0240000
        k(   41) = (   0.2000000   0.3000000   0.3000000), wk =   0.0480000
        k(   42) = (   0.2000000   0.3000000   0.4000000), wk =   0.0960000
        k(   43) = (   0.2000000   0.3000000  -0.5000000), wk =   0.0480000
        k(   44) = (   0.2000000   0.4000000   0.4000000), wk =   0.0480000
        k(   45) = (   0.2000000   0.4000000  -0.5000000), wk =   0.0480000
        k(   46) = (   0.2000000  -0.5000000  -0.5000000), wk =   0.0120000
        k(   47) = (   0.3000000   0.3000000   0.3000000), wk =   0.0160000
        k(   48) = (   0.3000000   0.3000000   0.4000000), wk =   0.0480000
        k(   49) = (   0.3000000   0.3000000  -0.5000000), wk =   0.0240000
        k(   50) = (   0.3000000   0.4000000   0.4000000), wk =   0.0480000
        k(   51) = (   0.3000000   0.4000000  -0.5000000), wk =   0.0480000
        k(   52) = (   0.3000000  -0.5000000  -0.5000000), wk =   0.0120000
        k(   53) = (   0.4000000   0.4000000   0.4000000), wk =   0.0160000
        k(   54) = (   0.4000000   0.4000000  -0.5000000), wk =   0.0240000
        k(   55) = (   0.4000000  -0.5000000  -0.5000000), wk =   0.0120000
        k(   56) = (  -0.5000000  -0.5000000  -0.5000000), wk =   0.0020000

                       cryst. coord.
        k(    1) = (   0.0000000   0.0000000   0.0000000), wk =   0.0020000
        k(    2) = (   0.0000000   0.0000000   0.1000000), wk =   0.0120000
        k(    3) = (   0.0000000   0.0000000   0.2000000), wk =   0.0120000
        k(    4) = (   0.0000000   0.0000000   0.3000000), wk =   0.0120000
        k(    5) = (   0.0000000   0.0000000   0.4000000), wk =   0.0120000
        k(    6) = (   0.0000000   0.0000000  -0.5000000), wk =   0.0060000
        k(    7) = (   0.0000000   0.1000000   0.1000000), wk =   0.0240000
        k(    8) = (   0.0000000   0.1000000   0.2000000), wk =   0.0480000
        k(    9) = (   0.0000000   0.1000000   0.3000000), wk =   0.0480000
        k(   10) = (   0.0000000   0.1000000   0.4000000), wk =   0.0480000
        k(   11) = (   0.0000000   0.1000000  -0.5000000), wk =   0.0240000
        k(   12) = (   0.0000000   0.2000000   0.2000000), wk =   0.0240000
        k(   13) = (   0.0000000   0.2000000   0.3000000), wk =   0.0480000
        k(   14) = (   0.0000000   0.2000000   0.4000000), wk =   0.0480000
        k(   15) = (   0.0000000   0.2000000  -0.5000000), wk =   0.0240000
        k(   16) = (   0.0000000   0.3000000   0.3000000), wk =   0.0240000
        k(   17) = (   0.0000000   0.3000000   0.4000000), wk =   0.0480000
        k(   18) = (   0.0000000   0.3000000  -0.5000000), wk =   0.0240000
        k(   19) = (   0.0000000   0.4000000   0.4000000), wk =   0.0240000
        k(   20) = (   0.0000000   0.4000000  -0.5000000), wk =   0.0240000
        k(   21) = (   0.0000000  -0.5000000  -0.5000000), wk =   0.0060000
        k(   22) = (   0.1000000   0.1000000   0.1000000), wk =   0.0160000
        k(   23) = (   0.1000000   0.1000000   0.2000000), wk =   0.0480000
        k(   24) = (   0.1000000   0.1000000   0.3000000), wk =   0.0480000
        k(   25) = (   0.1000000   0.1000000   0.4000000), wk =   0.0480000
        k(   26) = (   0.1000000   0.1000000  -0.5000000), wk =   0.0240000
        k(   27) = (   0.1000000   0.2000000   0.2000000), wk =   0.0480000
        k(   28) = (   0.1000000   0.2000000   0.3000000), wk =   0.0960000
        k(   29) = (   0.1000000   0.2000000   0.4000000), wk =   0.0960000
        k(   30) = (   0.1000000   0.2000000  -0.5000000), wk =   0.0480000
        k(   31) = (   0.1000000   0.3000000   0.3000000), wk =   0.0480000
        k(   32) = (   0.1000000   0.3000000   0.4000000), wk =   0.0960000
        k(   33) = (   0.1000000   0.3000000  -0.5000000), wk =   0.0480000
        k(   34) = (   0.1000000   0.4000000   0.4000000), wk =   0.0480000
        k(   35) = (   0.1000000   0.4000000  -0.5000000), wk =   0.0480000
        k(   36) = (   0.1000000  -0.5000000  -0.5000000), wk =   0.0120000
        k(   37) = (   0.2000000   0.2000000   0.2000000), wk =   0.0160000
        k(   38) = (   0.2000000   0.2000000   0.3000000), wk =   0.0480000
        k(   39) = (   0.2000000   0.2000000   0.4000000), wk =   0.0480000
        k(   40) = (   0.2000000   0.2000000  -0.5000000), wk =   0.0240000
        k(   41) = (   0.2000000   0.3000000   0.3000000), wk =   0.0480000
        k(   42) = (   0.2000000   0.3000000   0.4000000), wk =   0.0960000
        k(   43) = (   0.2000000   0.3000000  -0.5000000), wk =   0.0480000
        k(   44) = (   0.2000000   0.4000000   0.4000000), wk =   0.0480000
        k(   45) = (   0.2000000   0.4000000  -0.5000000), wk =   0.0480000
        k(   46) = (   0.2000000  -0.5000000  -0.5000000), wk =   0.0120000
        k(   47) = (   0.3000000   0.3000000   0.3000000), wk =   0.0160000
        k(   48) = (   0.3000000   0.3000000   0.4000000), wk =   0.0480000
        k(   49) = (   0.3000000   0.3000000  -0.5000000), wk =   0.0240000
        k(   50) = (   0.3000000   0.4000000   0.4000000), wk =   0.0480000
        k(   51) = (   0.3000000   0.4000000  -0.5000000), wk =   0.0480000
        k(   52) = (   0.3000000  -0.5000000  -0.5000000), wk =   0.0120000
        k(   53) = (   0.4000000   0.4000000   0.4000000), wk =   0.0160000
        k(   54) = (   0.4000000   0.4000000  -0.5000000), wk =   0.0240000
        k(   55) = (   0.4000000  -0.5000000  -0.5000000), wk =   0.0120000
        k(   56) = (  -0.5000000  -0.5000000  -0.5000000), wk =   0.0020000

     Dense  grid:  2576031 G-vectors     FFT dimensions: ( 180, 180, 180)

     Smooth grid:   495639 G-vectors     FFT dimensions: ( 100, 100, 100)

     Dynamical RAM for                 wfc:      30.61 MB

     Dynamical RAM for     wfc (w. buffer):     244.90 MB

     Dynamical RAM for           str. fact:       2.46 MB

     Dynamical RAM for           local pot:       0.00 MB

     Dynamical RAM for          nlocal pot:      57.44 MB

     Dynamical RAM for                qrad:       2.64 MB

     Dynamical RAM for          rho,v,vnew:      16.27 MB

     Dynamical RAM for               rhoin:       5.42 MB

     Dynamical RAM for            rho*nmix:      39.31 MB

     Dynamical RAM for           G-vectors:       9.45 MB

     Dynamical RAM for          h,s,v(r/c):       3.07 MB

     Dynamical RAM for          <psi|beta>:       7.68 MB

     Dynamical RAM for                 psi:      61.22 MB

     Dynamical RAM for                hpsi:      61.22 MB

     Dynamical RAM for                spsi:      61.22 MB

     Dynamical RAM for      wfcinit/wfcrot:      70.50 MB

     Dynamical RAM for           addusdens:      75.85 MB

     Dynamical RAM for          addusforce:     107.69 MB

     Dynamical RAM for         addusstress:      62.80 MB

     Estimated static dynamical RAM per process >     358.32 MB

     Estimated max dynamical RAM per process >     592.05 MB

     Estimated total dynamical RAM >      69.71 GB

     Initial potential from superposition of free atoms

     starting charge     863.9764, renormalised to     864.0000
     Starting wfcs are  540 randomized atomic wfcs
     Checking if some PAW data can be deallocated... 

     total cpu time spent up to now is       40.0 secs

     per-process dynamical memory:   576.0 Mb

     Self-consistent Calculation

     iteration #  1     ecut=    90.00 Ry     beta= 0.20
     Davidson diagonalization with overlap

---- Real-time Memory Report at c_bands before calling an iterative solver
          1160 MiB given to the printing process from OS
           562 MiB allocation reported by mallinfo(arena+hblkhd)
        383101 MiB available memory on the node where the printing process lives
------------------
     ethr =  1.00E-02,  avg # of iterations =  3.1

     Threshold (ethr) on eigenvalues was too large:
     Diagonalizing with lowered threshold

     Davidson diagonalization with overlap

---- Real-time Memory Report at c_bands before calling an iterative solver
          1318 MiB given to the printing process from OS
           570 MiB allocation reported by mallinfo(arena+hblkhd)
        381043 MiB available memory on the node where the printing process lives
------------------
     ethr =  6.50E-05,  avg # of iterations =  8.2

     total cpu time spent up to now is      342.0 secs

     total energy              =  -17778.08207899 Ry
     estimated scf accuracy    <       1.89662855 Ry

     iteration #  2     ecut=    90.00 Ry     beta= 0.20
     Davidson diagonalization with overlap

---- Real-time Memory Report at c_bands before calling an iterative solver
          1329 MiB given to the printing process from OS
           572 MiB allocation reported by mallinfo(arena+hblkhd)
        380933 MiB available memory on the node where the printing process lives
------------------
     ethr =  2.20E-04,  avg # of iterations =  2.1

     total cpu time spent up to now is      456.7 secs

     total energy              =  -17778.15455404 Ry
     estimated scf accuracy    <       0.28368947 Ry

     iteration #  3     ecut=    90.00 Ry     beta= 0.20
     Davidson diagonalization with overlap

---- Real-time Memory Report at c_bands before calling an iterative solver
          1329 MiB given to the printing process from OS
           573 MiB allocation reported by mallinfo(arena+hblkhd)
        380899 MiB available memory on the node where the printing process lives
------------------
     ethr =  3.28E-05,  avg # of iterations =  5.5

     total cpu time spent up to now is      599.2 secs

     total energy              =  -17778.14274544 Ry
     estimated scf accuracy    <       7.80877879 Ry

     iteration #  4     ecut=    90.00 Ry     beta= 0.20
     Davidson diagonalization with overlap

---- Real-time Memory Report at c_bands before calling an iterative solver
          1329 MiB given to the printing process from OS
           575 MiB allocation reported by mallinfo(arena+hblkhd)
        380904 MiB available memory on the node where the printing process lives
------------------
     ethr =  3.28E-05,  avg # of iterations =  1.8

     total cpu time spent up to now is      701.9 secs

     total energy              =  -17778.25307010 Ry
     estimated scf accuracy    <       0.87299707 Ry

     iteration #  5     ecut=    90.00 Ry     beta= 0.20
     Davidson diagonalization with overlap

---- Real-time Memory Report at c_bands before calling an iterative solver
          1329 MiB given to the printing process from OS
           576 MiB allocation reported by mallinfo(arena+hblkhd)
        380873 MiB available memory on the node where the printing process lives
------------------
     ethr =  3.28E-05,  avg # of iterations =  1.0

     total cpu time spent up to now is      795.6 secs

     total energy              =  -17778.26070615 Ry
     estimated scf accuracy    <       0.23343394 Ry

     iteration #  6     ecut=    90.00 Ry     beta= 0.20
     Davidson diagonalization with overlap

---- Real-time Memory Report at c_bands before calling an iterative solver
          1329 MiB given to the printing process from OS
           577 MiB allocation reported by mallinfo(arena+hblkhd)
        380855 MiB available memory on the node where the printing process lives
------------------
     ethr =  2.70E-05,  avg # of iterations =  1.0

     total cpu time spent up to now is      887.6 secs

     total energy              =  -17778.24691860 Ry
     estimated scf accuracy    <       0.20016862 Ry

     iteration #  7     ecut=    90.00 Ry     beta= 0.20
     Davidson diagonalization with overlap

---- Real-time Memory Report at c_bands before calling an iterative solver
          1329 MiB given to the printing process from OS
           578 MiB allocation reported by mallinfo(arena+hblkhd)
        380808 MiB available memory on the node where the printing process lives
------------------
     ethr =  2.32E-05,  avg # of iterations =  1.8

     total cpu time spent up to now is      993.8 secs

     total energy              =  -17778.25036230 Ry
     estimated scf accuracy    <       0.60757050 Ry

     iteration #  8     ecut=    90.00 Ry     beta= 0.20
     Davidson diagonalization with overlap

---- Real-time Memory Report at c_bands before calling an iterative solver
          1329 MiB given to the printing process from OS
           579 MiB allocation reported by mallinfo(arena+hblkhd)
        380802 MiB available memory on the node where the printing process lives
------------------
     ethr =  2.32E-05,  avg # of iterations =  3.9

     total cpu time spent up to now is     1114.3 secs

     total energy              =  -17778.28078520 Ry
     estimated scf accuracy    <       0.17917434 Ry

     iteration #  9     ecut=    90.00 Ry     beta= 0.20
     Davidson diagonalization with overlap

---- Real-time Memory Report at c_bands before calling an iterative solver
          1329 MiB given to the printing process from OS
           580 MiB allocation reported by mallinfo(arena+hblkhd)
        380762 MiB available memory on the node where the printing process lives
------------------
     ethr =  2.07E-05,  avg # of iterations =  1.0

     total cpu time spent up to now is     1207.5 secs

     total energy              =  -17778.24900141 Ry
     estimated scf accuracy    <       0.42653846 Ry

     iteration # 10     ecut=    90.00 Ry     beta= 0.20
     Davidson diagonalization with overlap

---- Real-time Memory Report at c_bands before calling an iterative solver
          1331 MiB given to the printing process from OS
           581 MiB allocation reported by mallinfo(arena+hblkhd)
        380682 MiB available memory on the node where the printing process lives
------------------
     ethr =  2.07E-05,  avg # of iterations =  1.3

     total cpu time spent up to now is     1307.6 secs

     total energy              =  -17778.25983560 Ry
     estimated scf accuracy    <       0.15403951 Ry

     iteration # 11     ecut=    90.00 Ry     beta= 0.20
     Davidson diagonalization with overlap

---- Real-time Memory Report at c_bands before calling an iterative solver
          1332 MiB given to the printing process from OS
           581 MiB allocation reported by mallinfo(arena+hblkhd)
        380704 MiB available memory on the node where the printing process lives
------------------
     ethr =  1.78E-05,  avg # of iterations =  1.0

     total cpu time spent up to now is     1403.5 secs

     total energy              =  -17778.24996382 Ry
     estimated scf accuracy    <       0.03760497 Ry

     iteration # 12     ecut=    90.00 Ry     beta= 0.20
     Davidson diagonalization with overlap

---- Real-time Memory Report at c_bands before calling an iterative solver
          1332 MiB given to the printing process from OS
           581 MiB allocation reported by mallinfo(arena+hblkhd)
        382004 MiB available memory on the node where the printing process lives
------------------
     ethr =  4.35E-06,  avg # of iterations =  4.3

     total cpu time spent up to now is     1530.3 secs

     total energy              =  -17778.25434582 Ry
     estimated scf accuracy    <       0.17596812 Ry

     iteration # 13     ecut=    90.00 Ry     beta= 0.20
     Davidson diagonalization with overlap

---- Real-time Memory Report at c_bands before calling an iterative solver
          1332 MiB given to the printing process from OS
           581 MiB allocation reported by mallinfo(arena+hblkhd)
        381987 MiB available memory on the node where the printing process lives
------------------
     ethr =  4.35E-06,  avg # of iterations =  1.0

     total cpu time spent up to now is     1622.7 secs

     total energy              =  -17778.25792482 Ry
     estimated scf accuracy    <       0.01307842 Ry

     iteration # 14     ecut=    90.00 Ry     beta= 0.20
     Davidson diagonalization with overlap

---- Real-time Memory Report at c_bands before calling an iterative solver
          1332 MiB given to the printing process from OS
           581 MiB allocation reported by mallinfo(arena+hblkhd)
        381978 MiB available memory on the node where the printing process lives
------------------
     ethr =  1.51E-06,  avg # of iterations =  1.3

     total cpu time spent up to now is     1724.6 secs

     total energy              =  -17778.25714392 Ry
     estimated scf accuracy    <       0.02379203 Ry

     iteration # 15     ecut=    90.00 Ry     beta= 0.20
     Davidson diagonalization with overlap

---- Real-time Memory Report at c_bands before calling an iterative solver
          1332 MiB given to the printing process from OS
           581 MiB allocation reported by mallinfo(arena+hblkhd)
        381985 MiB available memory on the node where the printing process lives
------------------
     ethr =  1.51E-06,  avg # of iterations =  1.4

     total cpu time spent up to now is     1825.1 secs

     total energy              =  -17778.25321069 Ry
     estimated scf accuracy    <       0.49890311 Ry

     iteration # 16     ecut=    90.00 Ry     beta= 0.20
     Davidson diagonalization with overlap

---- Real-time Memory Report at c_bands before calling an iterative solver
          1332 MiB given to the printing process from OS
           581 MiB allocation reported by mallinfo(arena+hblkhd)
        381992 MiB available memory on the node where the printing process lives
------------------
     ethr =  1.51E-06,  avg # of iterations =  1.7

     total cpu time spent up to now is     1927.8 secs

     total energy              =  -17778.25551213 Ry
     estimated scf accuracy    <       0.24972177 Ry

     iteration # 17     ecut=    90.00 Ry     beta= 0.20
     Davidson diagonalization with overlap

---- Real-time Memory Report at c_bands before calling an iterative solver
          1332 MiB given to the printing process from OS
           581 MiB allocation reported by mallinfo(arena+hblkhd)
        381983 MiB available memory on the node where the printing process lives
------------------
     ethr =  1.51E-06,  avg # of iterations =  1.0

     total cpu time spent up to now is     2021.6 secs

     total energy              =  -17778.25789558 Ry
     estimated scf accuracy    <       0.02068174 Ry

     iteration # 18     ecut=    90.00 Ry     beta= 0.20
     Davidson diagonalization with overlap

---- Real-time Memory Report at c_bands before calling an iterative solver
          1332 MiB given to the printing process from OS
           581 MiB allocation reported by mallinfo(arena+hblkhd)
        381981 MiB available memory on the node where the printing process lives
------------------
     ethr =  1.51E-06,  avg # of iterations =  1.0

     total cpu time spent up to now is     2114.3 secs

     total energy              =  -17778.25813456 Ry
     estimated scf accuracy    <       0.00012800 Ry

     iteration # 19     ecut=    90.00 Ry     beta= 0.20
     Davidson diagonalization with overlap

---- Real-time Memory Report at c_bands before calling an iterative solver
          1332 MiB given to the printing process from OS
           581 MiB allocation reported by mallinfo(arena+hblkhd)
        381978 MiB available memory on the node where the printing process lives
------------------
     ethr =  1.48E-08,  avg # of iterations =  5.0

     total cpu time spent up to now is     2244.9 secs

     total energy              =  -17778.25815394 Ry
     estimated scf accuracy    <       0.00037507 Ry

     iteration # 20     ecut=    90.00 Ry     beta= 0.20
     Davidson diagonalization with overlap

---- Real-time Memory Report at c_bands before calling an iterative solver
          1332 MiB given to the printing process from OS
           582 MiB allocation reported by mallinfo(arena+hblkhd)
        381978 MiB available memory on the node where the printing process lives
------------------
     ethr =  1.48E-08,  avg # of iterations =  1.0

     total cpu time spent up to now is     2338.3 secs

     total energy              =  -17778.25816101 Ry
     estimated scf accuracy    <       0.00002939 Ry

     iteration # 21     ecut=    90.00 Ry     beta= 0.20
     Davidson diagonalization with overlap

---- Real-time Memory Report at c_bands before calling an iterative solver
          1332 MiB given to the printing process from OS
           582 MiB allocation reported by mallinfo(arena+hblkhd)
        381968 MiB available memory on the node where the printing process lives
------------------
     ethr =  3.40E-09,  avg # of iterations =  1.8

     total cpu time spent up to now is     2442.0 secs

     total energy              =  -17778.25816130 Ry
     estimated scf accuracy    <       0.00003008 Ry

     iteration # 22     ecut=    90.00 Ry     beta= 0.20
     Davidson diagonalization with overlap

---- Real-time Memory Report at c_bands before calling an iterative solver
          1332 MiB given to the printing process from OS
           582 MiB allocation reported by mallinfo(arena+hblkhd)
        381970 MiB available memory on the node where the printing process lives
------------------
     ethr =  3.40E-09,  avg # of iterations =  1.0

     total cpu time spent up to now is     2534.4 secs

     total energy              =  -17778.25816175 Ry
     estimated scf accuracy    <       0.00000870 Ry

     iteration # 23     ecut=    90.00 Ry     beta= 0.20
     Davidson diagonalization with overlap

---- Real-time Memory Report at c_bands before calling an iterative solver
          1332 MiB given to the printing process from OS
           582 MiB allocation reported by mallinfo(arena+hblkhd)
        381963 MiB available memory on the node where the printing process lives
------------------
     ethr =  1.01E-09,  avg # of iterations =  2.2

     total cpu time spent up to now is     2639.6 secs

     total energy              =  -17778.25816164 Ry
     estimated scf accuracy    <       0.00002034 Ry

     iteration # 24     ecut=    90.00 Ry     beta= 0.20
     Davidson diagonalization with overlap

---- Real-time Memory Report at c_bands before calling an iterative solver
          1332 MiB given to the printing process from OS
           582 MiB allocation reported by mallinfo(arena+hblkhd)
        381968 MiB available memory on the node where the printing process lives
------------------
     ethr =  1.01E-09,  avg # of iterations =  1.8

     total cpu time spent up to now is     2741.4 secs

     total energy              =  -17778.25816078 Ry
     estimated scf accuracy    <       0.00010961 Ry

     iteration # 25     ecut=    90.00 Ry     beta= 0.20
     Davidson diagonalization with overlap

---- Real-time Memory Report at c_bands before calling an iterative solver
          1332 MiB given to the printing process from OS
           582 MiB allocation reported by mallinfo(arena+hblkhd)
        381967 MiB available memory on the node where the printing process lives
------------------
     ethr =  1.01E-09,  avg # of iterations =  1.2

     total cpu time spent up to now is     2841.0 secs

     total energy              =  -17778.25816196 Ry
     estimated scf accuracy    <       0.00003608 Ry

     iteration # 26     ecut=    90.00 Ry     beta= 0.20
     Davidson diagonalization with overlap

---- Real-time Memory Report at c_bands before calling an iterative solver
          1332 MiB given to the printing process from OS
           582 MiB allocation reported by mallinfo(arena+hblkhd)
        381973 MiB available memory on the node where the printing process lives
------------------
     ethr =  1.01E-09,  avg # of iterations =  1.0

     total cpu time spent up to now is     2937.3 secs

     total energy              =  -17778.25816145 Ry
     estimated scf accuracy    <       0.00008775 Ry

     iteration # 27     ecut=    90.00 Ry     beta= 0.20
     Davidson diagonalization with overlap

---- Real-time Memory Report at c_bands before calling an iterative solver
          1332 MiB given to the printing process from OS
           582 MiB allocation reported by mallinfo(arena+hblkhd)
        382010 MiB available memory on the node where the printing process lives
------------------
     ethr =  1.01E-09,  avg # of iterations =  1.0

     total cpu time spent up to now is     3029.5 secs

     total energy              =  -17778.25816127 Ry
     estimated scf accuracy    <       0.00008288 Ry

     iteration # 28     ecut=    90.00 Ry     beta= 0.20
     Davidson diagonalization with overlap

---- Real-time Memory Report at c_bands before calling an iterative solver
          1332 MiB given to the printing process from OS
           582 MiB allocation reported by mallinfo(arena+hblkhd)
        382001 MiB available memory on the node where the printing process lives
------------------
     ethr =  1.01E-09,  avg # of iterations =  1.0

     total cpu time spent up to now is     3121.4 secs

     total energy              =  -17778.25816231 Ry
     estimated scf accuracy    <       0.00002623 Ry

     iteration # 29     ecut=    90.00 Ry     beta= 0.20
     Davidson diagonalization with overlap

---- Real-time Memory Report at c_bands before calling an iterative solver
          1332 MiB given to the printing process from OS
           582 MiB allocation reported by mallinfo(arena+hblkhd)
        381993 MiB available memory on the node where the printing process lives
------------------
     ethr =  1.01E-09,  avg # of iterations =  1.0

     total cpu time spent up to now is     3212.7 secs

     total energy              =  -17778.25816246 Ry
     estimated scf accuracy    <       0.00000591 Ry

     iteration # 30     ecut=    90.00 Ry     beta= 0.20
     Davidson diagonalization with overlap

---- Real-time Memory Report at c_bands before calling an iterative solver
          1332 MiB given to the printing process from OS
           582 MiB allocation reported by mallinfo(arena+hblkhd)
        382004 MiB available memory on the node where the printing process lives
------------------
     ethr =  6.84E-10,  avg # of iterations =  1.0

     total cpu time spent up to now is     3304.9 secs

     total energy              =  -17778.25816261 Ry
     estimated scf accuracy    <       0.00000105 Ry

     iteration # 31     ecut=    90.00 Ry     beta= 0.20
     Davidson diagonalization with overlap

---- Real-time Memory Report at c_bands before calling an iterative solver
          1332 MiB given to the printing process from OS
           582 MiB allocation reported by mallinfo(arena+hblkhd)
        381998 MiB available memory on the node where the printing process lives
------------------
     ethr =  1.21E-10,  avg # of iterations =  1.0

     total cpu time spent up to now is     3397.8 secs

     total energy              =  -17778.25816260 Ry
     estimated scf accuracy    <       0.00000407 Ry

     iteration # 32     ecut=    90.00 Ry     beta= 0.20
     Davidson diagonalization with overlap

---- Real-time Memory Report at c_bands before calling an iterative solver
          1332 MiB given to the printing process from OS
           582 MiB allocation reported by mallinfo(arena+hblkhd)
        381997 MiB available memory on the node where the printing process lives
------------------
     ethr =  1.21E-10,  avg # of iterations =  1.0

     total cpu time spent up to now is     3490.3 secs

     total energy              =  -17778.25816269 Ry
     estimated scf accuracy    <       0.00000007 Ry

     iteration # 33     ecut=    90.00 Ry     beta= 0.20
     Davidson diagonalization with overlap

---- Real-time Memory Report at c_bands before calling an iterative solver
          1332 MiB given to the printing process from OS
           582 MiB allocation reported by mallinfo(arena+hblkhd)
        381989 MiB available memory on the node where the printing process lives
------------------
     ethr =  8.44E-12,  avg # of iterations =  1.5

     total cpu time spent up to now is     3593.2 secs

     total energy              =  -17778.25816268 Ry
     estimated scf accuracy    <       0.00000030 Ry

     iteration # 34     ecut=    90.00 Ry     beta= 0.20
     Davidson diagonalization with overlap

---- Real-time Memory Report at c_bands before calling an iterative solver
          1332 MiB given to the printing process from OS
           582 MiB allocation reported by mallinfo(arena+hblkhd)
        381990 MiB available memory on the node where the printing process lives
------------------
     ethr =  8.44E-12,  avg # of iterations =  1.1

     total cpu time spent up to now is     3687.8 secs

     total energy              =  -17778.25816269 Ry
     estimated scf accuracy    <       0.00000017 Ry

     iteration # 35     ecut=    90.00 Ry     beta= 0.20
     Davidson diagonalization with overlap

---- Real-time Memory Report at c_bands before calling an iterative solver
          1332 MiB given to the printing process from OS
           582 MiB allocation reported by mallinfo(arena+hblkhd)
        382246 MiB available memory on the node where the printing process lives
------------------
     ethr =  8.44E-12,  avg # of iterations =  1.0

     total cpu time spent up to now is     3779.3 secs

     total energy              =  -17778.25816269 Ry
     estimated scf accuracy    <       0.00000003 Ry

     iteration # 36     ecut=    90.00 Ry     beta= 0.20
     Davidson diagonalization with overlap

---- Real-time Memory Report at c_bands before calling an iterative solver
          1332 MiB given to the printing process from OS
           582 MiB allocation reported by mallinfo(arena+hblkhd)
        382245 MiB available memory on the node where the printing process lives
------------------
     ethr =  3.46E-12,  avg # of iterations =  1.1

     total cpu time spent up to now is     3877.2 secs

     total energy              =  -17778.25816268 Ry
     estimated scf accuracy    <       0.00000102 Ry

     iteration # 37     ecut=    90.00 Ry     beta= 0.20
     Davidson diagonalization with overlap

---- Real-time Memory Report at c_bands before calling an iterative solver
          1332 MiB given to the printing process from OS
           582 MiB allocation reported by mallinfo(arena+hblkhd)
        393265 MiB available memory on the node where the printing process lives
------------------
     ethr =  3.46E-12,  avg # of iterations =  1.0

     total cpu time spent up to now is     3970.7 secs

     total energy              =  -17778.25816268 Ry
     estimated scf accuracy    <       0.00000027 Ry

     iteration # 38     ecut=    90.00 Ry     beta= 0.20
     Davidson diagonalization with overlap

---- Real-time Memory Report at c_bands before calling an iterative solver
          1332 MiB given to the printing process from OS
           582 MiB allocation reported by mallinfo(arena+hblkhd)
        393268 MiB available memory on the node where the printing process lives
------------------
     ethr =  3.46E-12,  avg # of iterations =  1.0

     total cpu time spent up to now is     4063.2 secs

     total energy              =  -17778.25816268 Ry
     estimated scf accuracy    <       0.00000014 Ry

     iteration # 39     ecut=    90.00 Ry     beta= 0.20
     Davidson diagonalization with overlap

---- Real-time Memory Report at c_bands before calling an iterative solver
          1332 MiB given to the printing process from OS
           582 MiB allocation reported by mallinfo(arena+hblkhd)
        393260 MiB available memory on the node where the printing process lives
------------------
     ethr =  3.46E-12,  avg # of iterations =  1.0

     total cpu time spent up to now is     4155.4 secs

     total energy              =  -17778.25816268 Ry
     estimated scf accuracy    <       0.00000001 Ry

     iteration # 40     ecut=    90.00 Ry     beta= 0.20
     Davidson diagonalization with overlap

---- Real-time Memory Report at c_bands before calling an iterative solver
          1332 MiB given to the printing process from OS
           582 MiB allocation reported by mallinfo(arena+hblkhd)
        393262 MiB available memory on the node where the printing process lives
------------------
     ethr =  1.37E-12,  avg # of iterations =  1.0

     total cpu time spent up to now is     4246.8 secs

     total energy              =  -17778.25816268 Ry
     estimated scf accuracy    <       0.00000004 Ry

     iteration # 41     ecut=    90.00 Ry     beta= 0.20
     Davidson diagonalization with overlap

---- Real-time Memory Report at c_bands before calling an iterative solver
          1332 MiB given to the printing process from OS
           582 MiB allocation reported by mallinfo(arena+hblkhd)
        393253 MiB available memory on the node where the printing process lives
------------------
     ethr =  1.37E-12,  avg # of iterations =  1.0

     total cpu time spent up to now is     4337.4 secs

     total energy              =  -17778.25816268 Ry
     estimated scf accuracy    <       0.00000003 Ry

     iteration # 42     ecut=    90.00 Ry     beta= 0.20
     Davidson diagonalization with overlap

---- Real-time Memory Report at c_bands before calling an iterative solver
          1332 MiB given to the printing process from OS
           582 MiB allocation reported by mallinfo(arena+hblkhd)
        393253 MiB available memory on the node where the printing process lives
------------------
     ethr =  1.37E-12,  avg # of iterations =  1.0

     total cpu time spent up to now is     4431.9 secs

     End of self-consistent calculation

          k = 0.0000 0.0000 0.0000 ( 62093 PWs)   bands (ev):

   -69.5468 -69.5133 -69.5133 -69.5133 -69.5133 -69.5133 -69.5133 -69.4948
   -69.4948 -69.4948 -69.4948 -69.4948 -69.4948 -69.4948 -69.4948 -69.4948
   -69.4948 -69.4948 -69.4948 -69.4838 -69.4838 -69.4838 -69.4838 -69.4838
   -69.4838 -69.4838 -69.4838 -69.4687 -69.4687 -69.4687 -69.4687 -69.4687
   -69.4687 -69.4687 -69.4687 -69.4646 -69.4646 -69.4646 -69.4646 -69.4646
   -69.4646 -69.4646 -69.4646 -69.4646 -69.4646 -69.4646 -69.4646 -69.4530
   -69.4529 -69.4529 -69.4529 -69.4529 -69.4529 -69.4261 -35.7344 -35.7344
   -35.7344 -35.7344 -35.7344 -35.7344 -35.7344 -35.7344 -35.7344 -35.7344
   -35.7344 -35.7344 -35.6806 -35.6806 -35.6806 -35.6806 -35.6806 -35.6806
   -35.6806 -35.6806 -35.6677 -35.6677 -35.6677 -35.6677 -35.6677 -35.6677
   -35.6677 -35.6677 -35.6677 -35.6677 -35.6677 -35.6677 -35.6555 -35.6555
   -35.6555 -35.6437 -35.6437 -35.6437 -35.6437 -35.6437 -35.6437 -35.6437
   -35.6437 -35.6437 -35.6437 -35.6437 -35.6437 -35.6437 -35.6437 -35.6437
   -35.6437 -35.6318 -35.6318 -35.6318 -35.6318 -35.6318 -35.6318 -35.5846
   -35.5846 -35.5846 -35.5846 -35.5846 -35.5846 -35.5846 -35.5846 -35.5846
   -35.5846 -35.5846 -35.5846 -35.5470 -35.5470 -35.5470 -35.5470 -35.5470
   -35.5470 -35.5470 -35.5470 -35.5470 -35.5470 -35.5470 -35.5470 -35.4963
   -35.4963 -35.4963 -35.4963 -35.4963 -35.4963 -35.4790 -35.4790 -35.4790
   -35.4790 -35.4790 -35.4790 -35.4790 -35.4790 -35.4790 -35.4790 -35.4790
   -35.4790 -35.4680 -35.4680 -35.4680 -35.4680 -35.4680 -35.4680 -35.4680
   -35.4680 -35.4680 -35.4680 -35.4680 -35.4680 -35.4680 -35.4680 -35.4680
   -35.4680 -35.4522 -35.4522 -35.4522 -35.4522 -35.4522 -35.4522 -35.4522
   -35.4522 -35.4522 -35.4522 -35.4522 -35.4522 -35.4487 -35.4487 -35.4487
   -35.4487 -35.4487 -35.4487 -35.4487 -35.4487 -35.4487 -35.4487 -35.4487
   -35.4487 -35.4311 -35.4311 -35.4311 -35.4311 -35.4311 -35.4311 -35.4311
   -35.4311 -35.3837 -35.3837 -35.3837 -35.3834 -35.3834 -35.3834 -35.3834
   -35.3834 -35.3834 -35.3834 -35.3834 -35.3834 -35.3834 -35.3834 -35.3834
     9.2117  11.2911  11.2911  11.2911  11.2911  11.2911  11.2911  12.6259
    12.6259  12.6259  12.6259  12.6259  12.6259  12.6259  12.6259  12.6259
    12.6259  12.6259  12.6259  13.5813  13.5813  13.8473  13.8473  13.8473
    13.8473  13.8473  13.8473  13.8473  13.8473  13.8473  13.8473  13.8473
    13.8473  14.0023  14.0023  14.0023  14.0023  14.0023  14.0023  14.1256
    14.1256  14.1256  14.1256  14.1256  14.1256  14.1256  14.1256  14.5269
    14.5269  14.5269  14.5269  14.5269  14.5269  14.5441  14.5441  14.5441
    14.5441  14.5441  14.5441  14.5441  14.5441  14.9121  14.9121  14.9121
    14.9121  14.9121  14.9121  14.9121  14.9121  14.9121  14.9121  14.9121
    14.9121  14.9121  14.9121  14.9121  14.9121  15.1079  15.1079  15.1079
    15.1079  15.1079  15.1079  15.1079  15.1079  15.1079  15.1079  15.1079
    15.1079  15.1079  15.1079  15.1079  15.1079  15.1688  15.1688  15.1688
    15.1688  15.1688  15.1688  15.1688  15.1688  15.1688  15.1688  15.1688
    15.1688  15.4768  15.4768  15.4768  15.4768  15.4768  15.4768  15.4768
    15.4768  15.4768  15.4768  15.4768  15.4768  15.5865  15.5865  15.5865
    15.5865  15.5865  15.5865  15.5865  15.5865  15.5865  15.5865  15.5865
    15.5865  16.0139  16.0139  16.0139  16.0512  16.0512  16.0512  16.0512
    16.0512  16.0512  16.0512  16.0512  16.0512  16.0512  16.0512  16.0512
    16.0822  16.0822  16.0822  16.0822  16.0822  16.0822  16.0822  16.0822
    16.0822  16.0822  16.0822  16.0822  16.5058  16.5058  16.5058  16.5058
    16.5058  16.5058  16.5942  16.5942  16.5942  16.5942  16.5942  16.5942
    17.0112  17.0112  17.0112  17.0112  17.0112  17.0112  17.0112  17.0112
    17.0112  17.0112  17.0112  17.0112  17.0932  17.0932  17.0932  17.0932
    17.0932  17.0932  17.0932  17.0932  17.0932  17.0932  17.0932  17.0932
    17.3786  17.3786  17.3786  17.3786  17.3786  17.3786  17.3786  17.3786
    17.3786  17.3786  17.3786  17.3786  17.5115  17.5115  17.6262  17.6262
    17.6262  17.6262  17.6262  17.6262  17.6262  17.6262  17.6262  17.6262
    17.6262  17.6262  17.6262  17.6262  17.6262  17.6262  17.6410  17.6410
    17.6410  17.6410  17.6410  17.6410  17.6410  17.6410  17.6410  17.6410
    17.6410  17.6410  17.6816  17.6816  17.6816  17.6816  17.6816  17.6816
    17.6816  17.6816  17.6816  17.6816  17.6816  17.6816  17.6816  17.6816
    17.6816  17.6816  17.8004  17.8004  17.8004  17.8004  17.8004  17.8004
    17.8822  17.8822  17.8822  17.8822  17.8822  17.8822  17.9188  17.9188
    17.9188  17.9188  17.9188  17.9188  17.9188  17.9188  17.9188  17.9188
    17.9188  17.9188  18.4258  18.4258  18.4258  18.6271  18.6271  18.6271
    18.6271  18.6271  18.6271  18.6271  18.6271  18.6271  18.6271  18.6271
    18.6271  20.0629  20.0629  20.0629  20.0629  20.0629  20.0629  20.0629
    20.0629  20.6950  20.6950  20.6950  20.6950  20.6950

     occupation numbers 
     1.0000   1.0000   1.0000   1.0000   1.0000   1.0000   1.0000   1.0000
     1.0000   1.0000   1.0000   1.0000   1.0000   1.0000   1.0000   1.0000
     1.0000   1.0000   1.0000   1.0000   1.0000   1.0000   1.0000   1.0000
     1.0000   1.0000   1.0000   1.0000   1.0000   1.0000   1.0000   1.0000
     1.0000   1.0000   1.0000   1.0000   1.0000   1.0000   1.0000   1.0000
     1.0000   1.0000   1.0000   1.0000   1.0000   1.0000   1.0000   1.0000
     1.0000   1.0000   1.0000   1.0000   1.0000   1.0000   1.0000   1.0000
     1.0000   1.0000   1.0000   1.0000   1.0000   1.0000   1.0000   1.0000
     1.0000   1.0000   1.0000   1.0000   1.0000   1.0000   1.0000   1.0000
     1.0000   1.0000   1.0000   1.0000   1.0000   1.0000   1.0000   1.0000
     1.0000   1.0000   1.0000   1.0000   1.0000   1.0000   1.0000   1.0000
     1.0000   1.0000   1.0000   1.0000   1.0000   1.0000   1.0000   1.0000
     1.0000   1.0000   1.0000   1.0000   1.0000   1.0000   1.0000   1.0000
     1.0000   1.0000   1.0000   1.0000   1.0000   1.0000   1.0000   1.0000
     1.0000   1.0000   1.0000   1.0000   1.0000   1.0000   1.0000   1.0000
     1.0000   1.0000   1.0000   1.0000   1.0000   1.0000   1.0000   1.0000
     1.0000   1.0000   1.0000   1.0000   1.0000   1.0000   1.0000   1.0000
     1.0000   1.0000   1.0000   1.0000   1.0000   1.0000   1.0000   1.0000
     1.0000   1.0000   1.0000   1.0000   1.0000   1.0000   1.0000   1.0000
     1.0000   1.0000   1.0000   1.0000   1.0000   1.0000   1.0000   1.0000
     1.0000   1.0000   1.0000   1.0000   1.0000   1.0000   1.0000   1.0000
     1.0000   1.0000   1.0000   1.0000   1.0000   1.0000   1.0000   1.0000
     1.0000   1.0000   1.0000   1.0000   1.0000   1.0000   1.0000   1.0000
     1.0000   1.0000   1.0000   1.0000   1.0000   1.0000   1.0000   1.0000
     1.0000   1.0000   1.0000   1.0000   1.0000   1.0000   1.0000   1.0000
     1.0000   1.0000   1.0000   1.0000   1.0000   1.0000   1.0000   1.0000
     1.0000   1.0000   1.0000   1.0000   1.0000   1.0000   1.0000   1.0000
     1.0000   1.0000   1.0000   1.0000   1.0000   1.0000   1.0000   1.0000
     1.0000   1.0000   1.0000   1.0000   1.0000   1.0000   1.0000   1.0000
     1.0000   1.0000   1.0000   1.0000   1.0000   1.0000   1.0000   1.0000
     1.0000   1.0000   1.0000   1.0000   1.0000   1.0000   1.0000   1.0000
     1.0000   1.0000   1.0000   1.0000   1.0000   1.0000   1.0000   1.0000
     1.0000   1.0000   1.0000   1.0000   1.0000   1.0000   1.0000   1.0000
     1.0000   1.0000   1.0000   1.0000   1.0000   1.0000   1.0000   1.0000
     1.0000   1.0000   1.0000   1.0000   1.0000   1.0000   1.0000   1.0000
     1.0000   1.0000   1.0000   1.0000   1.0000   1.0000   1.0000   1.0000
     1.0000   1.0000   1.0000   1.0000   1.0000   1.0000   1.0000   1.0000
     1.0000   1.0000   1.0000   1.0000   1.0000   1.0000   1.0000   1.0000
     1.0000   1.0000   1.0000   1.0000   1.0000   1.0000   1.0000   1.0000
     1.0000   1.0000   1.0000   1.0000   1.0000   1.0000   1.0000   1.0000
     1.0000   1.0000   1.0000   1.0000   1.0000   1.0000   1.0000   1.0000
     1.0000   1.0000   1.0000   1.0000   1.0000   1.0000   1.0000   1.0000
     1.0000   1.0000   1.0000   1.0000   1.0000   1.0000   1.0000   1.0000
     1.0000   1.0000   1.0000   1.0000   1.0000   1.0000   1.0000   1.0000
     1.0000   1.0000   1.0000   1.0000   1.0000   1.0000   1.0000   1.0000
     1.0000   1.0000   1.0000   1.0000   1.0000   1.0000   1.0000   1.0000
     1.0000   1.0000   1.0000   1.0000   1.0000   1.0000   1.0000   1.0000
     1.0000   1.0000   1.0000   1.0000   1.0000   1.0000   1.0000   1.0000
     1.0000   1.0000   1.0000   1.0000   1.0000   1.0000   1.0000   1.0000
     1.0000   1.0000   1.0000   1.0000   1.0003   1.0003   1.0003   1.0003
     1.0003   1.0003   1.0003   1.0003   1.0003   1.0003   1.0003   1.0003
     1.0741   1.0741   1.0741   1.0741   1.0741   1.0741   1.0741   1.0741
     1.0741   1.0741   1.0741   1.0741   0.5878   0.5878   0.1086   0.1086
     0.1086   0.1086   0.1086   0.1086   0.1086   0.1086   0.1086   0.1086
     0.1086   0.1086   0.1086   0.1086   0.1086   0.1086   0.0795   0.0795
     0.0795   0.0795   0.0795   0.0795   0.0795   0.0795   0.0795   0.0795
     0.0795   0.0795   0.0302   0.0302   0.0302   0.0302   0.0302   0.0302
     0.0302   0.0302   0.0302   0.0302   0.0302   0.0302   0.0302   0.0302
     0.0302   0.0302   0.0007   0.0007   0.0007   0.0007   0.0007   0.0007
     0.0000   0.0000   0.0000   0.0000   0.0000   0.0000   0.0000   0.0000
     0.0000   0.0000   0.0000   0.0000   0.0000   0.0000   0.0000   0.0000
     0.0000   0.0000   0.0000   0.0000   0.0000   0.0000   0.0000   0.0000
     0.0000   0.0000   0.0000   0.0000   0.0000   0.0000   0.0000   0.0000
     0.0000   0.0000   0.0000   0.0000   0.0000   0.0000   0.0000   0.0000
     0.0000   0.0000   0.0000   0.0000   0.0000   0.0000

          k = 0.0000 0.0000 0.1000 ( 62033 PWs)   bands (ev):

   -69.5464 -69.5191 -69.5131 -69.5131 -69.5131 -69.5131 -69.5073 -69.4979
   -69.4979 -69.4979 -69.4979 -69.4947 -69.4947 -69.4947 -69.4947 -69.4916
   -69.4916 -69.4916 -69.4916 -69.4856 -69.4856 -69.4856 -69.4856 -69.4821
   -69.4820 -69.4820 -69.4820 -69.4698 -69.4698 -69.4698 -69.4698 -69.4678
   -69.4678 -69.4678 -69.4678 -69.4670 -69.4670 -69.4670 -69.4670 -69.4646
   -69.4646 -69.4646 -69.4646 -69.4624 -69.4624 -69.4624 -69.4624 -69.4582
   -69.4531 -69.4531 -69.4531 -69.4531 -69.4481 -69.4264 -35.7381 -35.7381
   -35.7381 -35.7381 -35.7334 -35.7334 -35.7334 -35.7334 -35.7287 -35.7287
   -35.7287 -35.7287 -35.6839 -35.6839 -35.6839 -35.6839 -35.6820 -35.6820
   -35.6820 -35.6820 -35.6789 -35.6789 -35.6789 -35.6789 -35.6678 -35.6678
   -35.6678 -35.6678 -35.6595 -35.6595 -35.6595 -35.6595 -35.6555 -35.6548
   -35.6548 -35.6533 -35.6533 -35.6533 -35.6533 -35.6501 -35.6501 -35.6501
   -35.6501 -35.6381 -35.6369 -35.6369 -35.6369 -35.6369 -35.6330 -35.6330
   -35.6330 -35.6330 -35.6270 -35.6270 -35.6270 -35.6270 -35.6241 -35.5970
   -35.5970 -35.5842 -35.5842 -35.5842 -35.5842 -35.5793 -35.5793 -35.5793
   -35.5793 -35.5716 -35.5716 -35.5535 -35.5535 -35.5535 -35.5535 -35.5490
   -35.5490 -35.5490 -35.5490 -35.5403 -35.5403 -35.5403 -35.5403 -35.5139
   -35.5023 -35.5023 -35.5023 -35.5023 -35.4850 -35.4850 -35.4850 -35.4850
[...]
     atom   47 type  1   force =     0.00000015   -0.00000015    0.00000015
     atom   48 type  1   force =     0.00000020   -0.00000000    0.00000020
     atom   49 type  1   force =     0.00000003    0.00000003    0.00000000
     atom   50 type  1   force =     0.00000013    0.00000013   -0.00000013
     atom   51 type  1   force =     0.00000015    0.00000015   -0.00000015
     atom   52 type  1   force =     0.00000020    0.00000020   -0.00000000
     atom   53 type  1   force =     0.00000015    0.00000015    0.00000015
     atom   54 type  1   force =     0.00000013    0.00000013    0.00000013
     The Hubbard contrib.    to forces
     atom    1 type  1   force =     0.00000000    0.00000000    0.00000000
     atom    2 type  1   force =     0.00000000    0.00000000    0.00000000
     atom    3 type  1   force =     0.00000000    0.00000000    0.00000000
     atom    4 type  1   force =     0.00000000    0.00000000    0.00000000
     atom    5 type  1   force =     0.00000000    0.00000000    0.00000000
     atom    6 type  1   force =     0.00000000    0.00000000    0.00000000
     atom    7 type  1   force =     0.00000000    0.00000000    0.00000000
     atom    8 type  1   force =     0.00000000    0.00000000    0.00000000
     atom    9 type  1   force =     0.00000000    0.00000000    0.00000000
     atom   10 type  1   force =     0.00000000    0.00000000    0.00000000
     atom   11 type  1   force =     0.00000000    0.00000000    0.00000000
     atom   12 type  1   force =     0.00000000    0.00000000    0.00000000
     atom   13 type  1   force =     0.00000000    0.00000000    0.00000000
     atom   14 type  1   force =     0.00000000    0.00000000    0.00000000
     atom   15 type  1   force =     0.00000000    0.00000000    0.00000000
     atom   16 type  1   force =     0.00000000    0.00000000    0.00000000
     atom   17 type  1   force =     0.00000000    0.00000000    0.00000000
     atom   18 type  1   force =     0.00000000    0.00000000    0.00000000
     atom   19 type  1   force =     0.00000000    0.00000000    0.00000000
     atom   20 type  1   force =     0.00000000    0.00000000    0.00000000
     atom   21 type  1   force =     0.00000000    0.00000000    0.00000000
     atom   22 type  1   force =     0.00000000    0.00000000    0.00000000
     atom   23 type  1   force =     0.00000000    0.00000000    0.00000000
     atom   24 type  1   force =     0.00000000    0.00000000    0.00000000
     atom   25 type  1   force =     0.00000000    0.00000000    0.00000000
     atom   26 type  1   force =     0.00000000    0.00000000    0.00000000
     atom   27 type  1   force =     0.00000000    0.00000000    0.00000000
     atom   28 type  1   force =     0.00000000    0.00000000    0.00000000
     atom   29 type  1   force =     0.00000000    0.00000000    0.00000000
     atom   30 type  1   force =     0.00000000    0.00000000    0.00000000
     atom   31 type  1   force =     0.00000000    0.00000000    0.00000000
     atom   32 type  1   force =     0.00000000    0.00000000    0.00000000
     atom   33 type  1   force =     0.00000000    0.00000000    0.00000000
     atom   34 type  1   force =     0.00000000    0.00000000    0.00000000
     atom   35 type  1   force =     0.00000000    0.00000000    0.00000000
     atom   36 type  1   force =     0.00000000    0.00000000    0.00000000
     atom   37 type  1   force =     0.00000000    0.00000000    0.00000000
     atom   38 type  1   force =     0.00000000    0.00000000    0.00000000
     atom   39 type  1   force =     0.00000000    0.00000000    0.00000000
     atom   40 type  1   force =     0.00000000    0.00000000    0.00000000
     atom   41 type  1   force =     0.00000000    0.00000000    0.00000000
     atom   42 type  1   force =     0.00000000    0.00000000    0.00000000
     atom   43 type  1   force =     0.00000000    0.00000000    0.00000000
     atom   44 type  1   force =     0.00000000    0.00000000    0.00000000
     atom   45 type  1   force =     0.00000000    0.00000000    0.00000000
     atom   46 type  1   force =     0.00000000    0.00000000    0.00000000
     atom   47 type  1   force =     0.00000000    0.00000000    0.00000000
     atom   48 type  1   force =     0.00000000    0.00000000    0.00000000
     atom   49 type  1   force =     0.00000000    0.00000000    0.00000000
     atom   50 type  1   force =     0.00000000    0.00000000    0.00000000
     atom   51 type  1   force =     0.00000000    0.00000000    0.00000000
     atom   52 type  1   force =     0.00000000    0.00000000    0.00000000
     atom   53 type  1   force =     0.00000000    0.00000000    0.00000000
     atom   54 type  1   force =     0.00000000    0.00000000    0.00000000
     The SCF correction term to forces
     atom    1 type  1   force =    -0.00000000    0.00000000   -0.00000000
     atom    2 type  1   force =     0.00001694    0.00001694    0.00001694
     atom    3 type  1   force =     0.00000000   -0.00000000    0.00001387
     atom    4 type  1   force =     0.00001677    0.00001677    0.00000000
     atom    5 type  1   force =     0.00000000   -0.00000000   -0.00001387
     atom    6 type  1   force =     0.00001694    0.00001694   -0.00001694
     atom    7 type  1   force =    -0.00000000    0.00001387   -0.00000000
     atom    8 type  1   force =     0.00001677    0.00000000    0.00001677
     atom    9 type  1   force =     0.00000000    0.00001503    0.00001503
     atom   10 type  1   force =     0.00001595    0.00000000    0.00000000
     atom   11 type  1   force =     0.00000000    0.00001503   -0.00001503
     atom   12 type  1   force =     0.00001677   -0.00000000   -0.00001677
     atom   13 type  1   force =    -0.00000000   -0.00001387   -0.00000000
     atom   14 type  1   force =     0.00001694   -0.00001694    0.00001694
     atom   15 type  1   force =     0.00000000   -0.00001503    0.00001503
     atom   16 type  1   force =     0.00001677   -0.00001677    0.00000000
     atom   17 type  1   force =     0.00000000   -0.00001503   -0.00001503
     atom   18 type  1   force =     0.00001694   -0.00001694   -0.00001694
     atom   19 type  1   force =     0.00001387    0.00000000   -0.00000000
     atom   20 type  1   force =     0.00000000    0.00001677    0.00001677
     atom   21 type  1   force =     0.00001503    0.00000000    0.00001503
     atom   22 type  1   force =     0.00000000    0.00001595    0.00000000
     atom   23 type  1   force =     0.00001503    0.00000000   -0.00001503
     atom   24 type  1   force =    -0.00000000    0.00001677   -0.00001677
     atom   25 type  1   force =     0.00001503    0.00001503   -0.00000000
     atom   26 type  1   force =     0.00000000    0.00000000    0.00001595
     atom   27 type  1   force =     0.00000782    0.00000782    0.00000782
     atom   28 type  1   force =     0.00000000    0.00000000    0.00000000
     atom   29 type  1   force =     0.00000782    0.00000782   -0.00000782
     atom   30 type  1   force =    -0.00000000    0.00000000   -0.00001595
     atom   31 type  1   force =     0.00001503   -0.00001503   -0.00000000
     atom   32 type  1   force =     0.00000000   -0.00001677    0.00001677
     atom   33 type  1   force =     0.00000782   -0.00000782    0.00000782
     atom   34 type  1   force =     0.00000000   -0.00001595    0.00000000
     atom   35 type  1   force =     0.00000782   -0.00000782   -0.00000782
     atom   36 type  1   force =    -0.00000000   -0.00001677   -0.00001677
     atom   37 type  1   force =    -0.00001387   -0.00000000    0.00000000
     atom   38 type  1   force =    -0.00001694    0.00001694    0.00001694
     atom   39 type  1   force =    -0.00001503   -0.00000000    0.00001503
     atom   40 type  1   force =    -0.00001677    0.00001677    0.00000000
     atom   41 type  1   force =    -0.00001503    0.00000000   -0.00001503
     atom   42 type  1   force =    -0.00001694    0.00001694   -0.00001694
     atom   43 type  1   force =    -0.00001503    0.00001503    0.00000000
     atom   44 type  1   force =    -0.00001677   -0.00000000    0.00001677
     atom   45 type  1   force =    -0.00000782    0.00000782    0.00000782
     atom   46 type  1   force =    -0.00001595    0.00000000    0.00000000
     atom   47 type  1   force =    -0.00000782    0.00000782   -0.00000782
     atom   48 type  1   force =    -0.00001677   -0.00000000   -0.00001677
     atom   49 type  1   force =    -0.00001503   -0.00001503    0.00000000
     atom   50 type  1   force =    -0.00001694   -0.00001694    0.00001694
     atom   51 type  1   force =    -0.00000782   -0.00000782    0.00000782
     atom   52 type  1   force =    -0.00001677   -0.00001677    0.00000000
     atom   53 type  1   force =    -0.00000782   -0.00000782   -0.00000782
     atom   54 type  1   force =    -0.00001694   -0.00001694   -0.00001694

     Total force =     0.000022     Total SCF correction =     0.000152
     SCF correction compared to forces is large: reduce conv_thr to get better values


     Computing stress (Cartesian axis) and pressure

          total   stress  (Ry/bohr**3)                   (kbar)     P=     -243.86
  -0.00165773   0.00000000   0.00000000         -243.86        0.00        0.00
   0.00000000  -0.00165773   0.00000000            0.00     -243.86        0.00
   0.00000000   0.00000000  -0.00165773            0.00        0.00     -243.86

     kinetic stress (kbar)  95345.56      0.00      0.00
                                0.00  95345.56      0.00
                                0.00      0.00  95345.56

     local   stress (kbar)  12075.47      0.00      0.00
                                0.00  12075.47      0.00
                                0.00      0.00  12075.47

     nonloc. stress (kbar) -26204.31      0.00      0.00
                                0.00 -26204.31      0.00
                                0.00      0.00 -26204.31

     hartree stress (kbar)  40675.87      0.00     -0.00
                                0.00  40675.87     -0.00
                               -0.00     -0.00  40675.87

     exc-cor stress (kbar) -13632.95      0.00      0.00
                                0.00 -13632.95      0.00
                                0.00      0.00 -13632.95

     corecor stress (kbar)  -2623.57      0.00      0.00
                                0.00  -2623.57      0.00
                                0.00      0.00  -2623.57

     ewald   stress (kbar)-105879.93      0.00      0.00
                                0.00-105879.93     -0.00
                                0.00     -0.00-105879.93

     hubbard stress (kbar)      0.00      0.00      0.00
                                0.00      0.00      0.00
                                0.00      0.00      0.00

     DFT-D   stress (kbar)      0.00      0.00      0.00
                                0.00      0.00      0.00
                                0.00      0.00      0.00

     XDM     stress (kbar)      0.00      0.00      0.00
                                0.00      0.00      0.00
                                0.00      0.00      0.00

     dft-nl  stress (kbar)      0.00      0.00      0.00
                                0.00      0.00      0.00
                                0.00      0.00      0.00

     TS-vdW  stress (kbar)      0.00      0.00      0.00
                                0.00      0.00      0.00
                                0.00      0.00      0.00

     MDB     stress (kbar)      0.00      0.00      0.00
                                0.00      0.00      0.00
                                0.00      0.00      0.00

     3D-RISM stress (kbar)      0.00      0.00      0.00
                                0.00      0.00      0.00
                                0.00      0.00      0.00


     BFGS Geometry Optimization
     Energy error            =      0.0E+00 Ry
     Gradient error          =      4.6E-06 Ry/Bohr

     bfgs converged in   1 scf cycles and   0 bfgs steps
     (criteria: energy <  1.0E-04 Ry, force <  1.0E-03 Ry/Bohr)

     End of BFGS Geometry Optimization

     Final energy             =  -17778.2581626809 Ry
Begin final coordinates

ATOMIC_POSITIONS (angstrom)
Fe               0.0000000000        0.0000000000        0.0000000000
Fe               1.4340500000        1.4340500000        1.4340500000
Fe               0.0000000000        0.0000000000        2.8681000000
Fe               1.4340500000        1.4340500000        4.3021500000
Fe               0.0000000000        0.0000000000        5.7362000000
Fe               1.4340500000        1.4340500000        7.1702500000
Fe               0.0000000000        2.8681000000        0.0000000000
Fe               1.4340500000        4.3021500000        1.4340500000
Fe               0.0000000000        2.8681000000        2.8681000000
Fe               1.4340500000        4.3021500000        4.3021500000
Fe               0.0000000000        2.8681000000        5.7362000000
Fe               1.4340500000        4.3021500000        7.1702500000
Fe               0.0000000000        5.7362000000        0.0000000000
Fe               1.4340500000        7.1702500000        1.4340500000
Fe               0.0000000000        5.7362000000        2.8681000000
Fe               1.4340500000        7.1702500000        4.3021500000
Fe               0.0000000000        5.7362000000        5.7362000000
Fe               1.4340500000        7.1702500000        7.1702500000
Fe               2.8681000000        0.0000000000        0.0000000000
Fe               4.3021500000        1.4340500000        1.4340500000
Fe               2.8681000000        0.0000000000        2.8681000000
Fe               4.3021500000        1.4340500000        4.3021500000
Fe               2.8681000000        0.0000000000        5.7362000000
Fe               4.3021500000        1.4340500000        7.1702500000
Fe               2.8681000000        2.8681000000        0.0000000000
Fe               4.3021500000        4.3021500000        1.4340500000
Fe               2.8681000000        2.8681000000        2.8681000000
Fe               4.3021500000        4.3021500000        4.3021500000
Fe               2.8681000000        2.8681000000        5.7362000000
Fe               4.3021500000        4.3021500000        7.1702500000
Fe               2.8681000000        5.7362000000        0.0000000000
Fe               4.3021500000        7.1702500000        1.4340500000
Fe               2.8681000000        5.7362000000        2.8681000000
Fe               4.3021500000        7.1702500000        4.3021500000
Fe               2.8681000000        5.7362000000        5.7362000000
Fe               4.3021500000        7.1702500000        7.1702500000
Fe               5.7362000000        0.0000000000        0.0000000000
Fe               7.1702500000        1.4340500000        1.4340500000
Fe               5.7362000000        0.0000000000        2.8681000000
Fe               7.1702500000        1.4340500000        4.3021500000
Fe               5.7362000000        0.0000000000        5.7362000000
Fe               7.1702500000        1.4340500000        7.1702500000
Fe               5.7362000000        2.8681000000        0.0000000000
Fe               7.1702500000        4.3021500000        1.4340500000
Fe               5.7362000000        2.8681000000        2.8681000000
Fe               7.1702500000        4.3021500000        4.3021500000
Fe               5.7362000000        2.8681000000        5.7362000000
Fe               7.1702500000        4.3021500000        7.1702500000
Fe               5.7362000000        5.7362000000        0.0000000000
Fe               7.1702500000        7.1702500000        1.4340500000
Fe               5.7362000000        5.7362000000        2.8681000000
Fe               7.1702500000        7.1702500000        4.3021500000
Fe               5.7362000000        5.7362000000        5.7362000000
Fe               7.1702500000        7.1702500000        7.1702500000
End final coordinates


     Message from routine punch:
     Nothing written, as per user request (disk_io='none')

     init_run     :     36.58s CPU     38.45s WALL (       1 calls)
     electrons    :   4194.22s CPU   4392.30s WALL (       1 calls)
     forces       :     18.33s CPU     19.25s WALL (       1 calls)
     stress       :    409.68s CPU    419.90s WALL (       1 calls)

     Called by init_run:
     wfcinit      :     32.67s CPU     34.12s WALL (       1 calls)
     wfcinit:atom :      0.15s CPU      0.27s WALL (       7 calls)
     wfcinit:wfcr :     31.30s CPU     32.43s WALL (       7 calls)
     potinit      :      1.04s CPU      1.20s WALL (       1 calls)
     hinit0       :      1.11s CPU      1.15s WALL (       1 calls)

     Called by electrons:
     c_bands      :   3537.99s CPU   3693.06s WALL (      43 calls)
     sum_band     :    619.97s CPU    654.03s WALL (      43 calls)
     v_of_rho     :     19.85s CPU     24.75s WALL (      43 calls)
     v_h          :      1.39s CPU      1.80s WALL (      43 calls)
     v_xc         :     19.24s CPU     23.91s WALL (      45 calls)
     newd         :      7.09s CPU      9.22s WALL (      43 calls)
     PAW_pot      :      5.67s CPU      6.41s WALL (      43 calls)
     mix_rho      :      0.85s CPU      1.10s WALL (      43 calls)

     Called by c_bands:
     init_us_2    :     46.57s CPU     47.44s WALL (     623 calls)
     cegterg      :   3362.77s CPU   3497.99s WALL (     301 calls)

     Called by sum_band:
     sum_band:wei :      0.26s CPU      0.31s WALL (      43 calls)
     sum_band:loo :    575.55s CPU    600.53s WALL (      43 calls)
     sum_band:buf :      6.75s CPU      7.10s WALL (     301 calls)
     sum_band:ini :     15.59s CPU     15.80s WALL (     301 calls)
     sum_band:cal :    157.35s CPU    164.16s WALL (     301 calls)
     sum_band:bec :      1.83s CPU      1.86s WALL (     301 calls)
     addusdens    :      5.85s CPU      8.03s WALL (      43 calls)
                                        0.00s GPU  (      43 calls)
     addusd:skk   :      0.54s CPU      0.65s WALL (      43 calls)
                                        0.00s GPU  (      43 calls)

     Called by *egterg:
     cdiaghg      :    146.47s CPU    163.61s WALL (     834 calls)
     cegterg:over :    330.62s CPU    341.35s WALL (     540 calls)
     cegterg:upda :    198.19s CPU    206.52s WALL (     540 calls)
     cegterg:last :    323.24s CPU    332.52s WALL (     425 calls)
     cdiaghg:chol :     12.00s CPU     13.79s WALL (     834 calls)
     cdiaghg:inve :     12.89s CPU     15.24s WALL (     834 calls)
     cdiaghg:para :     31.51s CPU     37.62s WALL (    1668 calls)
     h_psi        :   1928.83s CPU   1996.44s WALL (     848 calls)
     s_psi        :    309.45s CPU    312.46s WALL (     848 calls)
     g_psi        :      4.36s CPU      4.42s WALL (     540 calls)

     Called by h_psi:
     h_psi:calbec :    335.55s CPU    347.94s WALL (     848 calls)
     vloc_psi     :   1271.80s CPU   1312.66s WALL (     848 calls)
     add_vuspsi   :    309.28s CPU    312.74s WALL (     848 calls)

     General routines
     calbec       :    527.57s CPU    550.43s WALL (    1184 calls)
     fft          :     12.78s CPU     15.86s WALL (     583 calls)
     ffts         :      0.93s CPU      1.14s WALL (      86 calls)
     fftw         :    840.02s CPU    885.69s WALL (  815460 calls)
     interpolate  :      1.81s CPU      2.13s WALL (      43 calls)

     Parallel routines

     PAW routines
     PAW_pot      :      5.67s CPU      6.41s WALL (      43 calls)
     PAW_symme    :      0.70s CPU      0.82s WALL (      86 calls)

     PWSCF        :   4659.99s CPU   4872.31s WALL


   This run was terminated on:  19: 5:22   3Jun2025            

=------------------------------------------------------------------------------=
   JOB DONE.
=------------------------------------------------------------------------------=
