
     Program PWSCF v.7.3.1 starts on 13May2025 at  6:49:21 

     This program is part of the open-source Quantum ESPRESSO suite
     for quantum simulation of materials; please cite
         "P. Giannozzi et al., J. Phys.:Condens. Matter 21 395502 (2009);
         "P. Giannozzi et al., J. Phys.:Condens. Matter 29 465901 (2017);
         "P. Giannozzi et al., J. Chem. Phys. 152 154105 (2020);
          URL http://www.quantum-espresso.org", 
     in publications or presentations arising from this work. More details at
     http://www.quantum-espresso.org/quote

     Parallel version (MPI & OpenMP), running on     128 processor cores
     Number of MPI processes:               128
     Threads/MPI process:                     1

     MPI processes distributed on     1 nodes
     452904 MiB available memory on the printing compute node when the environment starts

     Waiting for input...
     Reading input from standard input

     Current dimensions of program PWSCF are:
     Max number of different atomic species (ntypx) = 10
     Max number of k-points (npk) =  40000
     Max angular momentum in pseudopotentials (lmaxx) =  4
     file Fe.pbe-spn-kjpaw_psl.0.2.1.UPF: wavefunction(s)  3D renormalized

     K-points division:     npool     =      16
     R & G space division:  proc/nbgrp/npool/nimage =       8
     Subspace diagonalization in iterative solution of the eigenvalue problem:
     a serial algorithm will be used


     Parallelization info
     --------------------
     sticks:   dense  smooth     PW     G-vecs:    dense   smooth      PW
     Min         222      74     22                 5949     1147     199
     Max         223      75     23                 5951     1149     201
     Sum        1781     599    181                47597     9189    1601

     Using Slab Decomposition



     bravais-lattice index     =            3
     lattice parameter (alat)  =       5.4200  a.u.
     unit-cell volume          =      79.6100 (a.u.)^3
     number of atoms/cell      =            1
     number of atomic types    =            1
     number of electrons       =        16.00
     number of Kohn-Sham states=           12
     kinetic-energy cutoff     =      90.0000  Ry
     charge density cutoff     =    1080.0000  Ry
     scf convergence threshold =      1.0E-10
     mixing beta               =       0.2000
     number of iterations used =            8  plain     mixing
     Exchange-correlation= SLA  PW   PBX  PBC
                           (   1   4   3   4   0   0   0)

     celldm(1)=   5.420000  celldm(2)=   0.000000  celldm(3)=   0.000000
     celldm(4)=   0.000000  celldm(5)=   0.000000  celldm(6)=   0.000000

     crystal axes: (cart. coord. in units of alat)
               a(1) = (   0.500000   0.500000   0.500000 )  
               a(2) = (  -0.500000   0.500000   0.500000 )  
               a(3) = (  -0.500000  -0.500000   0.500000 )  

     reciprocal axes: (cart. coord. in units 2 pi/alat)
               b(1) = (  1.000000  0.000000  1.000000 )  
               b(2) = ( -1.000000  1.000000  0.000000 )  
               b(3) = (  0.000000 -1.000000  1.000000 )  


     PseudoPot. # 1 for Fe read from file:
     ../../../pseudopotentials/Fe.pbe-spn-kjpaw_psl.0.2.1.UPF
     MD5 check sum: 4338034a7fd945be4bb7db5fd3b2d142
     Pseudo is Projector augmented-wave + core cor, Zval = 16.0
     Generated using "atomic" code by A. Dal Corso  v.5.0.2 svn rev. 9415
     Shape of augmentation charge: PSQ
     Using radial grid of 1191 points,  6 beta functions with: 
                l(1) =   0
                l(2) =   0
                l(3) =   1
                l(4) =   1
                l(5) =   2
                l(6) =   2
     Q(r) pseudized with 0 coefficients 


     atomic species   valence    mass     pseudopotential
     Fe               16.00    55.84500     Fe( 1.00)

     Starting magnetic structure 
     atomic species   magnetization
     Fe              0.400

     48 Sym. Ops., with inversion, found


                                    s                        frac. trans.

      isym =  1     identity                                     

 cryst.   s( 1) = (     1          0          0      )
                  (     0          1          0      )
                  (     0          0          1      )

 cart.    s( 1) = (  1.0000000  0.0000000  0.0000000 )
                  (  0.0000000  1.0000000  0.0000000 )
                  (  0.0000000  0.0000000  1.0000000 )


      isym =  2     180 deg rotation - cart. axis [0,0,1]        

 cryst.   s( 2) = (     0          0          1      )
                  (     1         -1          1      )
                  (     1          0          0      )

 cart.    s( 2) = ( -1.0000000  0.0000000  0.0000000 )
                  (  0.0000000 -1.0000000  0.0000000 )
                  (  0.0000000  0.0000000  1.0000000 )


      isym =  3     180 deg rotation - cart. axis [0,1,0]        

 cryst.   s( 3) = (    -1          1         -1      )
                  (     0          0         -1      )
                  (     0         -1          0      )

 cart.    s( 3) = ( -1.0000000  0.0000000  0.0000000 )
                  (  0.0000000  1.0000000  0.0000000 )
                  (  0.0000000  0.0000000 -1.0000000 )


      isym =  4     180 deg rotation - cart. axis [1,0,0]        

 cryst.   s( 4) = (     0         -1          0      )
                  (    -1          0          0      )
                  (    -1          1         -1      )

 cart.    s( 4) = (  1.0000000  0.0000000  0.0000000 )
                  (  0.0000000 -1.0000000  0.0000000 )
                  (  0.0000000  0.0000000 -1.0000000 )


      isym =  5     180 deg rotation - cart. axis [1,1,0]        

 cryst.   s( 5) = (     0          0         -1      )
                  (     0         -1          0      )
                  (    -1          0          0      )

 cart.    s( 5) = (  0.0000000  1.0000000  0.0000000 )
                  (  1.0000000  0.0000000  0.0000000 )
                  (  0.0000000  0.0000000 -1.0000000 )


      isym =  6     180 deg rotation - cart. axis [1,-1,0]       

 cryst.   s( 6) = (    -1          0          0      )
                  (    -1          1         -1      )
                  (     0          0         -1      )

 cart.    s( 6) = (  0.0000000 -1.0000000  0.0000000 )
                  ( -1.0000000  0.0000000  0.0000000 )
                  (  0.0000000  0.0000000 -1.0000000 )


      isym =  7      90 deg rotation - cart. axis [0,0,-1]       

 cryst.   s( 7) = (     1         -1          1      )
                  (     1          0          0      )
                  (     0          1          0      )

 cart.    s( 7) = (  0.0000000  1.0000000  0.0000000 )
                  ( -1.0000000  0.0000000  0.0000000 )
                  (  0.0000000  0.0000000  1.0000000 )


      isym =  8      90 deg rotation - cart. axis [0,0,1]        

 cryst.   s( 8) = (     0          1          0      )
                  (     0          0          1      )
                  (     1         -1          1      )

 cart.    s( 8) = (  0.0000000 -1.0000000  0.0000000 )
                  (  1.0000000  0.0000000  0.0000000 )
                  (  0.0000000  0.0000000  1.0000000 )


      isym =  9     180 deg rotation - cart. axis [1,0,1]        

 cryst.   s( 9) = (     1         -1          1      )
                  (     0         -1          0      )
                  (     0          0         -1      )

 cart.    s( 9) = (  0.0000000  0.0000000  1.0000000 )
                  (  0.0000000 -1.0000000  0.0000000 )
                  (  1.0000000  0.0000000  0.0000000 )


      isym = 10     180 deg rotation - cart. axis [-1,0,1]       

 cryst.   s(10) = (    -1          0          0      )
                  (     0          0          1      )
                  (     0          1          0      )

 cart.    s(10) = (  0.0000000  0.0000000 -1.0000000 )
                  (  0.0000000 -1.0000000  0.0000000 )
                  ( -1.0000000  0.0000000  0.0000000 )


      isym = 11      90 deg rotation - cart. axis [0,1,0]        

 cryst.   s(11) = (     0          0         -1      )
                  (     1          0          0      )
                  (     1         -1          1      )

 cart.    s(11) = (  0.0000000  0.0000000  1.0000000 )
                  (  0.0000000  1.0000000  0.0000000 )
                  ( -1.0000000  0.0000000  0.0000000 )


      isym = 12      90 deg rotation - cart. axis [0,-1,0]       

 cryst.   s(12) = (     0          1          0      )
                  (    -1          1         -1      )
                  (    -1          0          0      )

 cart.    s(12) = (  0.0000000  0.0000000 -1.0000000 )
                  (  0.0000000  1.0000000  0.0000000 )
                  (  1.0000000  0.0000000  0.0000000 )


      isym = 13     180 deg rotation - cart. axis [0,1,1]        

 cryst.   s(13) = (     0          1          0      )
                  (     1          0          0      )
                  (     0          0         -1      )

 cart.    s(13) = ( -1.0000000  0.0000000  0.0000000 )
                  (  0.0000000  0.0000000  1.0000000 )
                  (  0.0000000  1.0000000  0.0000000 )


      isym = 14     180 deg rotation - cart. axis [0,1,-1]       

 cryst.   s(14) = (    -1          0          0      )
                  (     0         -1          0      )
                  (     1         -1          1      )

 cart.    s(14) = ( -1.0000000  0.0000000  0.0000000 )
                  (  0.0000000  0.0000000 -1.0000000 )
                  (  0.0000000 -1.0000000  0.0000000 )


      isym = 15      90 deg rotation - cart. axis [-1,0,0]       

 cryst.   s(15) = (     0          0         -1      )
                  (    -1          1         -1      )
                  (     0          1          0      )

 cart.    s(15) = (  1.0000000  0.0000000  0.0000000 )
                  (  0.0000000  0.0000000  1.0000000 )
                  (  0.0000000 -1.0000000  0.0000000 )


      isym = 16      90 deg rotation - cart. axis [1,0,0]        

 cryst.   s(16) = (     1         -1          1      )
                  (     0          0          1      )
                  (    -1          0          0      )

 cart.    s(16) = (  1.0000000  0.0000000  0.0000000 )
                  (  0.0000000  0.0000000 -1.0000000 )
                  (  0.0000000  1.0000000  0.0000000 )


      isym = 17     120 deg rotation - cart. axis [-1,-1,-1]     

 cryst.   s(17) = (     1          0          0      )
                  (     0          0         -1      )
                  (    -1          1         -1      )

 cart.    s(17) = (  0.0000000  1.0000000  0.0000000 )
                  (  0.0000000  0.0000000  1.0000000 )
                  (  1.0000000  0.0000000  0.0000000 )


      isym = 18     120 deg rotation - cart. axis [-1,1,1]       

 cryst.   s(18) = (    -1          1         -1      )
                  (     0          1          0      )
                  (     1          0          0      )

 cart.    s(18) = (  0.0000000 -1.0000000  0.0000000 )
                  (  0.0000000  0.0000000  1.0000000 )
                  ( -1.0000000  0.0000000  0.0000000 )


      isym = 19     120 deg rotation - cart. axis [1,1,-1]       

 cryst.   s(19) = (     0         -1          0      )
                  (     1         -1          1      )
                  (     0          0          1      )

 cart.    s(19) = (  0.0000000  1.0000000  0.0000000 )
                  (  0.0000000  0.0000000 -1.0000000 )
                  ( -1.0000000  0.0000000  0.0000000 )


      isym = 20     120 deg rotation - cart. axis [1,-1,1]       

 cryst.   s(20) = (     0          0          1      )
                  (    -1          0          0      )
                  (     0         -1          0      )

 cart.    s(20) = (  0.0000000 -1.0000000  0.0000000 )
                  (  0.0000000  0.0000000 -1.0000000 )
                  (  1.0000000  0.0000000  0.0000000 )


      isym = 21     120 deg rotation - cart. axis [1,1,1]        

 cryst.   s(21) = (     1          0          0      )
                  (     1         -1          1      )
                  (     0         -1          0      )

 cart.    s(21) = (  0.0000000  0.0000000  1.0000000 )
                  (  1.0000000  0.0000000  0.0000000 )
                  (  0.0000000  1.0000000  0.0000000 )


      isym = 22     120 deg rotation - cart. axis [-1,1,-1]      

 cryst.   s(22) = (     0         -1          0      )
                  (     0          0         -1      )
                  (     1          0          0      )

 cart.    s(22) = (  0.0000000  0.0000000  1.0000000 )
                  ( -1.0000000  0.0000000  0.0000000 )
                  (  0.0000000 -1.0000000  0.0000000 )


      isym = 23     120 deg rotation - cart. axis [1,-1,-1]      

 cryst.   s(23) = (     0          0          1      )
                  (     0          1          0      )
                  (    -1          1         -1      )

 cart.    s(23) = (  0.0000000  0.0000000 -1.0000000 )
                  ( -1.0000000  0.0000000  0.0000000 )
                  (  0.0000000  1.0000000  0.0000000 )


      isym = 24     120 deg rotation - cart. axis [-1,-1,1]      

 cryst.   s(24) = (    -1          1         -1      )
                  (    -1          0          0      )
                  (     0          0          1      )

 cart.    s(24) = (  0.0000000  0.0000000 -1.0000000 )
                  (  1.0000000  0.0000000  0.0000000 )
                  (  0.0000000 -1.0000000  0.0000000 )


      isym = 25     inversion                                    

 cryst.   s(25) = (    -1          0          0      )
                  (     0         -1          0      )
                  (     0          0         -1      )

 cart.    s(25) = ( -1.0000000  0.0000000  0.0000000 )
                  (  0.0000000 -1.0000000  0.0000000 )
                  (  0.0000000  0.0000000 -1.0000000 )


      isym = 26     inv. 180 deg rotation - cart. axis [0,0,1]   

 cryst.   s(26) = (     0          0         -1      )
                  (    -1          1         -1      )
                  (    -1          0          0      )

 cart.    s(26) = (  1.0000000  0.0000000  0.0000000 )
                  (  0.0000000  1.0000000  0.0000000 )
                  (  0.0000000  0.0000000 -1.0000000 )


      isym = 27     inv. 180 deg rotation - cart. axis [0,1,0]   

 cryst.   s(27) = (     1         -1          1      )
                  (     0          0          1      )
                  (     0          1          0      )

 cart.    s(27) = (  1.0000000  0.0000000  0.0000000 )
                  (  0.0000000 -1.0000000  0.0000000 )
                  (  0.0000000  0.0000000  1.0000000 )


      isym = 28     inv. 180 deg rotation - cart. axis [1,0,0]   

 cryst.   s(28) = (     0          1          0      )
                  (     1          0          0      )
                  (     1         -1          1      )

 cart.    s(28) = ( -1.0000000  0.0000000  0.0000000 )
                  (  0.0000000  1.0000000  0.0000000 )
                  (  0.0000000  0.0000000  1.0000000 )


      isym = 29     inv. 180 deg rotation - cart. axis [1,1,0]   

 cryst.   s(29) = (     0          0          1      )
                  (     0          1          0      )
                  (     1          0          0      )

 cart.    s(29) = (  0.0000000 -1.0000000  0.0000000 )
                  ( -1.0000000  0.0000000  0.0000000 )
                  (  0.0000000  0.0000000  1.0000000 )


      isym = 30     inv. 180 deg rotation - cart. axis [1,-1,0]  

 cryst.   s(30) = (     1          0          0      )
                  (     1         -1          1      )
                  (     0          0          1      )

 cart.    s(30) = (  0.0000000  1.0000000  0.0000000 )
                  (  1.0000000  0.0000000  0.0000000 )
                  (  0.0000000  0.0000000  1.0000000 )


      isym = 31     inv.  90 deg rotation - cart. axis [0,0,-1]  

 cryst.   s(31) = (    -1          1         -1      )
                  (    -1          0          0      )
                  (     0         -1          0      )

 cart.    s(31) = (  0.0000000 -1.0000000  0.0000000 )
                  (  1.0000000  0.0000000  0.0000000 )
                  (  0.0000000  0.0000000 -1.0000000 )


      isym = 32     inv.  90 deg rotation - cart. axis [0,0,1]   

 cryst.   s(32) = (     0         -1          0      )
                  (     0          0         -1      )
                  (    -1          1         -1      )

 cart.    s(32) = (  0.0000000  1.0000000  0.0000000 )
                  ( -1.0000000  0.0000000  0.0000000 )
                  (  0.0000000  0.0000000 -1.0000000 )


      isym = 33     inv. 180 deg rotation - cart. axis [1,0,1]   

 cryst.   s(33) = (    -1          1         -1      )
                  (     0          1          0      )
                  (     0          0          1      )

 cart.    s(33) = (  0.0000000  0.0000000 -1.0000000 )
                  (  0.0000000  1.0000000  0.0000000 )
                  ( -1.0000000  0.0000000  0.0000000 )


      isym = 34     inv. 180 deg rotation - cart. axis [-1,0,1]  

 cryst.   s(34) = (     1          0          0      )
                  (     0          0         -1      )
                  (     0         -1          0      )

 cart.    s(34) = (  0.0000000  0.0000000  1.0000000 )
                  (  0.0000000  1.0000000  0.0000000 )
                  (  1.0000000  0.0000000  0.0000000 )


      isym = 35     inv.  90 deg rotation - cart. axis [0,1,0]   

 cryst.   s(35) = (     0          0          1      )
                  (    -1          0          0      )
                  (    -1          1         -1      )

 cart.    s(35) = (  0.0000000  0.0000000 -1.0000000 )
                  (  0.0000000 -1.0000000  0.0000000 )
                  (  1.0000000  0.0000000  0.0000000 )


      isym = 36     inv.  90 deg rotation - cart. axis [0,-1,0]  

 cryst.   s(36) = (     0         -1          0      )
                  (     1         -1          1      )
                  (     1          0          0      )

 cart.    s(36) = (  0.0000000  0.0000000  1.0000000 )
                  (  0.0000000 -1.0000000  0.0000000 )
                  ( -1.0000000  0.0000000  0.0000000 )


      isym = 37     inv. 180 deg rotation - cart. axis [0,1,1]   

 cryst.   s(37) = (     0         -1          0      )
                  (    -1          0          0      )
                  (     0          0          1      )

 cart.    s(37) = (  1.0000000  0.0000000  0.0000000 )
                  (  0.0000000  0.0000000 -1.0000000 )
                  (  0.0000000 -1.0000000  0.0000000 )


      isym = 38     inv. 180 deg rotation - cart. axis [0,1,-1]  

 cryst.   s(38) = (     1          0          0      )
                  (     0          1          0      )
                  (    -1          1         -1      )

 cart.    s(38) = (  1.0000000  0.0000000  0.0000000 )
                  (  0.0000000  0.0000000  1.0000000 )
                  (  0.0000000  1.0000000  0.0000000 )


      isym = 39     inv.  90 deg rotation - cart. axis [-1,0,0]  

 cryst.   s(39) = (     0          0          1      )
                  (     1         -1          1      )
                  (     0         -1          0      )

 cart.    s(39) = ( -1.0000000  0.0000000  0.0000000 )
                  (  0.0000000  0.0000000 -1.0000000 )
                  (  0.0000000  1.0000000  0.0000000 )


      isym = 40     inv.  90 deg rotation - cart. axis [1,0,0]   

 cryst.   s(40) = (    -1          1         -1      )
                  (     0          0         -1      )
                  (     1          0          0      )

 cart.    s(40) = ( -1.0000000  0.0000000  0.0000000 )
                  (  0.0000000  0.0000000  1.0000000 )
                  (  0.0000000 -1.0000000  0.0000000 )


      isym = 41     inv. 120 deg rotation - cart. axis [-1,-1,-1]

 cryst.   s(41) = (    -1          0          0      )
                  (     0          0          1      )
                  (     1         -1          1      )

 cart.    s(41) = (  0.0000000 -1.0000000  0.0000000 )
                  (  0.0000000  0.0000000 -1.0000000 )
                  ( -1.0000000  0.0000000  0.0000000 )


      isym = 42     inv. 120 deg rotation - cart. axis [-1,1,1]  

 cryst.   s(42) = (     1         -1          1      )
                  (     0         -1          0      )
                  (    -1          0          0      )

 cart.    s(42) = (  0.0000000  1.0000000  0.0000000 )
                  (  0.0000000  0.0000000 -1.0000000 )
                  (  1.0000000  0.0000000  0.0000000 )


      isym = 43     inv. 120 deg rotation - cart. axis [1,1,-1]  

 cryst.   s(43) = (     0          1          0      )
                  (    -1          1         -1      )
                  (     0          0         -1      )

 cart.    s(43) = (  0.0000000 -1.0000000  0.0000000 )
                  (  0.0000000  0.0000000  1.0000000 )
                  (  1.0000000  0.0000000  0.0000000 )


      isym = 44     inv. 120 deg rotation - cart. axis [1,-1,1]  

 cryst.   s(44) = (     0          0         -1      )
                  (     1          0          0      )
                  (     0          1          0      )

 cart.    s(44) = (  0.0000000  1.0000000  0.0000000 )
                  (  0.0000000  0.0000000  1.0000000 )
                  ( -1.0000000  0.0000000  0.0000000 )


      isym = 45     inv. 120 deg rotation - cart. axis [1,1,1]   

 cryst.   s(45) = (    -1          0          0      )
                  (    -1          1         -1      )
                  (     0          1          0      )

 cart.    s(45) = (  0.0000000  0.0000000 -1.0000000 )
                  ( -1.0000000  0.0000000  0.0000000 )
                  (  0.0000000 -1.0000000  0.0000000 )


      isym = 46     inv. 120 deg rotation - cart. axis [-1,1,-1] 

 cryst.   s(46) = (     0          1          0      )
                  (     0          0          1      )
                  (    -1          0          0      )

 cart.    s(46) = (  0.0000000  0.0000000 -1.0000000 )
                  (  1.0000000  0.0000000  0.0000000 )
                  (  0.0000000  1.0000000  0.0000000 )


      isym = 47     inv. 120 deg rotation - cart. axis [1,-1,-1] 

 cryst.   s(47) = (     0          0         -1      )
                  (     0         -1          0      )
                  (     1         -1          1      )

 cart.    s(47) = (  0.0000000  0.0000000  1.0000000 )
                  (  1.0000000  0.0000000  0.0000000 )
                  (  0.0000000 -1.0000000  0.0000000 )


      isym = 48     inv. 120 deg rotation - cart. axis [-1,-1,1] 

 cryst.   s(48) = (     1         -1          1      )
                  (     1          0          0      )
                  (     0          0         -1      )

 cart.    s(48) = (  0.0000000  0.0000000  1.0000000 )
                  ( -1.0000000  0.0000000  0.0000000 )
                  (  0.0000000  1.0000000  0.0000000 )


     point group O_h (m-3m) 
     there are 10 classes
     the character table:

       E     8C3   3C2   6C4   6C2'  i     8S6   3s_h  6S4   6s_d 
A_1g   1.00  1.00  1.00  1.00  1.00  1.00  1.00  1.00  1.00  1.00
A_2g   1.00  1.00  1.00 -1.00 -1.00  1.00  1.00  1.00 -1.00 -1.00
E_g    2.00 -1.00  2.00  0.00  0.00  2.00 -1.00  2.00  0.00  0.00
T_1g   3.00  0.00 -1.00  1.00 -1.00  3.00  0.00 -1.00  1.00 -1.00
T_2g   3.00  0.00 -1.00 -1.00  1.00  3.00  0.00 -1.00 -1.00  1.00
A_1u   1.00  1.00  1.00  1.00  1.00 -1.00 -1.00 -1.00 -1.00 -1.00
A_2u   1.00  1.00  1.00 -1.00 -1.00 -1.00 -1.00 -1.00  1.00  1.00
E_u    2.00 -1.00  2.00  0.00  0.00 -2.00  1.00 -2.00  0.00  0.00
T_1u   3.00  0.00 -1.00  1.00 -1.00 -3.00  0.00  1.00 -1.00  1.00
T_2u   3.00  0.00 -1.00 -1.00  1.00 -3.00  0.00  1.00  1.00 -1.00

     the symmetry operations in each class and the name of the first element:

     E        1
          identity                                               
     8C3     17   19   20   18   24   21   22   23
          120 deg rotation - cart. axis [-1,-1,-1]               
     3C2      2    4    3
          180 deg rotation - cart. axis [0,0,1]                  
     6C4      7    8   15   16   12   11
           90 deg rotation - cart. axis [0,0,-1]                 
     6C2'     5    6   14   13   10    9
          180 deg rotation - cart. axis [1,1,0]                  
     i       25
          inversion                                              
     8S6     41   43   44   42   48   45   46   47
          inv. 120 deg rotation - cart. axis [-1,-1,-1]          
     3s_h    26   28   27
          inv. 180 deg rotation - cart. axis [0,0,1]             
     6S4     31   32   39   40   36   35
          inv.  90 deg rotation - cart. axis [0,0,-1]            
     6s_d    29   30   38   37   34   33
          inv. 180 deg rotation - cart. axis [1,1,0]             

   Cartesian axes

     site n.     atom                  positions (alat units)
         1        Fe     tau(   1) = (   0.0000000   0.0000000   0.0000000  )

   Crystallographic axes

     site n.     atom                  positions (cryst. coord.)
         1        Fe     tau(   1) = (  0.0000000  0.0000000  0.0000000  )

     number of k points=   145  Marzari-Vanderbilt smearing, width (Ry)=  0.0100
                       cart. coord. in units 2pi/alat
        k(    1) = (   0.0000000   0.0000000   0.0000000), wk =   0.0002441
        k(    2) = (   0.0000000  -0.0625000   0.0625000), wk =   0.0029297
        k(    3) = (   0.0000000  -0.1250000   0.1250000), wk =   0.0029297
        k(    4) = (   0.0000000  -0.1875000   0.1875000), wk =   0.0029297
        k(    5) = (   0.0000000  -0.2500000   0.2500000), wk =   0.0029297
        k(    6) = (   0.0000000  -0.3125000   0.3125000), wk =   0.0029297
        k(    7) = (   0.0000000  -0.3750000   0.3750000), wk =   0.0029297
        k(    8) = (   0.0000000  -0.4375000   0.4375000), wk =   0.0029297
        k(    9) = (   0.0000000   0.5000000  -0.5000000), wk =   0.0014648
        k(   10) = (  -0.0625000  -0.0625000   0.1250000), wk =   0.0058594
        k(   11) = (  -0.0625000  -0.1250000   0.1875000), wk =   0.0117188
        k(   12) = (  -0.0625000  -0.1875000   0.2500000), wk =   0.0117188
        k(   13) = (  -0.0625000  -0.2500000   0.3125000), wk =   0.0117188
        k(   14) = (  -0.0625000  -0.3125000   0.3750000), wk =   0.0117188
        k(   15) = (  -0.0625000  -0.3750000   0.4375000), wk =   0.0117188
        k(   16) = (  -0.0625000   0.5625000  -0.5000000), wk =   0.0117188
        k(   17) = (  -0.1250000  -0.1250000   0.2500000), wk =   0.0058594
        k(   18) = (  -0.1250000  -0.1875000   0.3125000), wk =   0.0117188
        k(   19) = (  -0.1250000  -0.2500000   0.3750000), wk =   0.0117188
        k(   20) = (  -0.1250000  -0.3125000   0.4375000), wk =   0.0117188
        k(   21) = (  -0.1250000   0.6250000  -0.5000000), wk =   0.0117188
        k(   22) = (  -0.1250000   0.5625000  -0.4375000), wk =   0.0058594
        k(   23) = (  -0.1875000  -0.1875000   0.3750000), wk =   0.0058594
        k(   24) = (  -0.1875000  -0.2500000   0.4375000), wk =   0.0117188
        k(   25) = (  -0.1875000   0.6875000  -0.5000000), wk =   0.0117188
        k(   26) = (  -0.1875000   0.6250000  -0.4375000), wk =   0.0117188
        k(   27) = (  -0.2500000   0.7500000  -0.5000000), wk =   0.0058594
        k(   28) = (  -0.2500000   0.6875000  -0.4375000), wk =   0.0117188
        k(   29) = (  -0.2500000   0.6250000  -0.3750000), wk =   0.0058594
        k(   30) = (  -0.3125000   0.6875000  -0.3750000), wk =   0.0058594
        k(   31) = (   0.0000000   0.0000000   0.1250000), wk =   0.0014648
        k(   32) = (   0.0000000  -0.0625000   0.1875000), wk =   0.0058594
        k(   33) = (   0.0000000  -0.1250000   0.2500000), wk =   0.0058594
        k(   34) = (   0.0000000  -0.1875000   0.3125000), wk =   0.0058594
        k(   35) = (   0.0000000  -0.2500000   0.3750000), wk =   0.0058594
        k(   36) = (   0.0000000  -0.3125000   0.4375000), wk =   0.0058594
        k(   37) = (   0.0000000  -0.3750000   0.5000000), wk =   0.0058594
        k(   38) = (   0.0000000   0.5625000  -0.4375000), wk =   0.0029297
        k(   39) = (  -0.0625000  -0.0625000   0.2500000), wk =   0.0058594
        k(   40) = (  -0.0625000  -0.1250000   0.3125000), wk =   0.0117188
        k(   41) = (  -0.0625000  -0.1875000   0.3750000), wk =   0.0117188
        k(   42) = (  -0.0625000  -0.2500000   0.4375000), wk =   0.0117188
        k(   43) = (  -0.0625000  -0.3125000   0.5000000), wk =   0.0117188
        k(   44) = (  -0.0625000   0.6250000  -0.4375000), wk =   0.0117188
        k(   45) = (  -0.1250000   0.1250000   0.1250000), wk =   0.0019531
        k(   46) = (  -0.1250000  -0.1250000   0.3750000), wk =   0.0058594
        k(   47) = (  -0.1250000  -0.1875000   0.4375000), wk =   0.0117188
        k(   48) = (  -0.1250000  -0.2500000   0.5000000), wk =   0.0117188
        k(   49) = (  -0.1250000   0.6875000  -0.4375000), wk =   0.0117188
        k(   50) = (  -0.1250000   0.6250000  -0.3750000), wk =   0.0058594
        k(   51) = (  -0.1875000   0.1875000   0.1250000), wk =   0.0058594
        k(   52) = (  -0.1875000  -0.1875000   0.5000000), wk =   0.0058594
        k(   53) = (  -0.1875000   0.7500000  -0.4375000), wk =   0.0117188
        k(   54) = (  -0.1875000   0.6875000  -0.3750000), wk =   0.0117188
        k(   55) = (  -0.2500000   0.2500000   0.1250000), wk =   0.0058594
        k(   56) = (  -0.2500000   0.1875000   0.1875000), wk =   0.0058594
        k(   57) = (  -0.2500000   0.7500000  -0.3750000), wk =   0.0058594
        k(   58) = (  -0.2500000   0.6875000  -0.3125000), wk =   0.0058594
        k(   59) = (  -0.3125000   0.3125000   0.1250000), wk =   0.0058594
        k(   60) = (  -0.3125000   0.2500000   0.1875000), wk =   0.0117188
        k(   61) = (  -0.3750000   0.3750000   0.1250000), wk =   0.0058594
        k(   62) = (  -0.3750000   0.3125000   0.1875000), wk =   0.0117188
        k(   63) = (  -0.3750000   0.2500000   0.2500000), wk =   0.0058594
        k(   64) = (   0.5625000  -0.5625000   0.1250000), wk =   0.0058594
        k(   65) = (   0.5625000  -0.6250000   0.1875000), wk =   0.0117188
        k(   66) = (   0.5625000  -0.6875000   0.2500000), wk =   0.0117188
        k(   67) = (   0.5000000  -0.5000000   0.1250000), wk =   0.0029297
        k(   68) = (   0.5000000  -0.5625000   0.1875000), wk =   0.0117188
        k(   69) = (   0.5000000  -0.6250000   0.2500000), wk =   0.0117188
        k(   70) = (   0.5000000  -0.6875000   0.3125000), wk =   0.0058594
        k(   71) = (   0.4375000  -0.5625000   0.2500000), wk =   0.0058594
        k(   72) = (   0.4375000  -0.6250000   0.3125000), wk =   0.0117188
        k(   73) = (   0.3750000  -0.6250000   0.3750000), wk =   0.0019531
        k(   74) = (   0.0000000   0.0000000   0.2500000), wk =   0.0014648
        k(   75) = (   0.0000000  -0.0625000   0.3125000), wk =   0.0058594
        k(   76) = (   0.0000000  -0.1250000   0.3750000), wk =   0.0058594
        k(   77) = (   0.0000000  -0.1875000   0.4375000), wk =   0.0058594
        k(   78) = (   0.0000000  -0.2500000   0.5000000), wk =   0.0058594
        k(   79) = (   0.0000000  -0.3125000   0.5625000), wk =   0.0058594
        k(   80) = (   0.0000000   0.6250000  -0.3750000), wk =   0.0029297
        k(   81) = (  -0.0625000  -0.0625000   0.3750000), wk =   0.0058594
        k(   82) = (  -0.0625000  -0.1250000   0.4375000), wk =   0.0117188
        k(   83) = (  -0.0625000  -0.1875000   0.5000000), wk =   0.0117188
        k(   84) = (  -0.0625000  -0.2500000   0.5625000), wk =   0.0117188
        k(   85) = (  -0.0625000   0.6875000  -0.3750000), wk =   0.0117188
        k(   86) = (  -0.1250000  -0.1250000   0.5000000), wk =   0.0058594
        k(   87) = (  -0.1250000  -0.1875000   0.5625000), wk =   0.0117188
        k(   88) = (  -0.1250000   0.7500000  -0.3750000), wk =   0.0117188
        k(   89) = (  -0.1250000   0.6875000  -0.3125000), wk =   0.0058594
        k(   90) = (  -0.1875000   0.8125000  -0.3750000), wk =   0.0058594
        k(   91) = (  -0.1875000   0.7500000  -0.3125000), wk =   0.0117188
        k(   92) = (  -0.2500000   0.2500000   0.2500000), wk =   0.0019531
        k(   93) = (  -0.2500000   0.7500000  -0.2500000), wk =   0.0019531
        k(   94) = (  -0.3125000   0.3125000   0.2500000), wk =   0.0058594
        k(   95) = (   0.6250000  -0.6250000   0.2500000), wk =   0.0058594
        k(   96) = (   0.6250000  -0.6875000   0.3125000), wk =   0.0058594
        k(   97) = (   0.5625000  -0.5625000   0.2500000), wk =   0.0058594
        k(   98) = (   0.5625000  -0.6250000   0.3125000), wk =   0.0117188
        k(   99) = (   0.5000000  -0.5000000   0.2500000), wk =   0.0029297
        k(  100) = (   0.5000000  -0.5625000   0.3125000), wk =   0.0117188
        k(  101) = (   0.5000000  -0.6250000   0.3750000), wk =   0.0058594
        k(  102) = (   0.4375000  -0.5625000   0.3750000), wk =   0.0058594
        k(  103) = (   0.0000000   0.0000000   0.3750000), wk =   0.0014648
        k(  104) = (   0.0000000  -0.0625000   0.4375000), wk =   0.0058594
        k(  105) = (   0.0000000  -0.1250000   0.5000000), wk =   0.0058594
        k(  106) = (   0.0000000  -0.1875000   0.5625000), wk =   0.0058594
        k(  107) = (   0.0000000  -0.2500000   0.6250000), wk =   0.0058594
        k(  108) = (   0.0000000   0.6875000  -0.3125000), wk =   0.0029297
        k(  109) = (  -0.0625000  -0.0625000   0.5000000), wk =   0.0058594
        k(  110) = (  -0.0625000  -0.1250000   0.5625000), wk =   0.0117188
        k(  111) = (  -0.0625000  -0.1875000   0.6250000), wk =   0.0117188
        k(  112) = (  -0.0625000   0.7500000  -0.3125000), wk =   0.0117188
        k(  113) = (  -0.1250000  -0.1250000   0.6250000), wk =   0.0058594
        k(  114) = (  -0.1250000   0.8125000  -0.3125000), wk =   0.0117188
        k(  115) = (  -0.1250000   0.7500000  -0.2500000), wk =   0.0058594
        k(  116) = (  -0.1875000   0.8125000  -0.2500000), wk =   0.0058594
        k(  117) = (   0.6250000  -0.6250000   0.3750000), wk =   0.0019531
        k(  118) = (   0.5625000  -0.5625000   0.3750000), wk =   0.0058594
        k(  119) = (   0.5000000  -0.5000000   0.3750000), wk =   0.0029297
        k(  120) = (   0.5000000  -0.5625000   0.4375000), wk =   0.0058594
        k(  121) = (   0.0000000   0.0000000   0.5000000), wk =   0.0014648
        k(  122) = (   0.0000000  -0.0625000   0.5625000), wk =   0.0058594
        k(  123) = (   0.0000000  -0.1250000   0.6250000), wk =   0.0058594
        k(  124) = (   0.0000000  -0.1875000   0.6875000), wk =   0.0058594
        k(  125) = (   0.0000000   0.7500000  -0.2500000), wk =   0.0029297
        k(  126) = (  -0.0625000  -0.0625000   0.6250000), wk =   0.0058594
        k(  127) = (  -0.0625000  -0.1250000   0.6875000), wk =   0.0117188
        k(  128) = (  -0.0625000   0.8125000  -0.2500000), wk =   0.0117188
        k(  129) = (  -0.1250000   0.8750000  -0.2500000), wk =   0.0058594
        k(  130) = (  -0.1250000   0.8125000  -0.1875000), wk =   0.0058594
        k(  131) = (   0.5000000  -0.5000000   0.5000000), wk =   0.0004883
        k(  132) = (   0.0000000   0.0000000   0.6250000), wk =   0.0014648
        k(  133) = (   0.0000000  -0.0625000   0.6875000), wk =   0.0058594
        k(  134) = (   0.0000000  -0.1250000   0.7500000), wk =   0.0058594
        k(  135) = (   0.0000000   0.8125000  -0.1875000), wk =   0.0029297
        k(  136) = (  -0.0625000  -0.0625000   0.7500000), wk =   0.0058594
        k(  137) = (  -0.0625000   0.8750000  -0.1875000), wk =   0.0117188
        k(  138) = (  -0.1250000   0.8750000  -0.1250000), wk =   0.0019531
        k(  139) = (   0.0000000   0.0000000   0.7500000), wk =   0.0014648
        k(  140) = (   0.0000000  -0.0625000   0.8125000), wk =   0.0058594
        k(  141) = (   0.0000000   0.8750000  -0.1250000), wk =   0.0029297
        k(  142) = (  -0.0625000   0.9375000  -0.1250000), wk =   0.0058594
        k(  143) = (   0.0000000   0.0000000   0.8750000), wk =   0.0014648
        k(  144) = (   0.0000000   0.9375000  -0.0625000), wk =   0.0029297
        k(  145) = (   0.0000000   0.0000000  -1.0000000), wk =   0.0002441

                       cryst. coord.
        k(    1) = (   0.0000000   0.0000000   0.0000000), wk =   0.0002441
        k(    2) = (   0.0000000   0.0000000   0.0625000), wk =   0.0029297
        k(    3) = (   0.0000000   0.0000000   0.1250000), wk =   0.0029297
        k(    4) = (   0.0000000   0.0000000   0.1875000), wk =   0.0029297
        k(    5) = (   0.0000000   0.0000000   0.2500000), wk =   0.0029297
        k(    6) = (   0.0000000   0.0000000   0.3125000), wk =   0.0029297
        k(    7) = (   0.0000000   0.0000000   0.3750000), wk =   0.0029297
        k(    8) = (   0.0000000   0.0000000   0.4375000), wk =   0.0029297
        k(    9) = (   0.0000000   0.0000000  -0.5000000), wk =   0.0014648
        k(   10) = (   0.0000000   0.0625000   0.1250000), wk =   0.0058594
        k(   11) = (   0.0000000   0.0625000   0.1875000), wk =   0.0117188
        k(   12) = (   0.0000000   0.0625000   0.2500000), wk =   0.0117188
        k(   13) = (   0.0000000   0.0625000   0.3125000), wk =   0.0117188
        k(   14) = (   0.0000000   0.0625000   0.3750000), wk =   0.0117188
        k(   15) = (   0.0000000   0.0625000   0.4375000), wk =   0.0117188
        k(   16) = (   0.0000000   0.0625000  -0.5000000), wk =   0.0117188
        k(   17) = (   0.0000000   0.1250000   0.2500000), wk =   0.0058594
        k(   18) = (   0.0000000   0.1250000   0.3125000), wk =   0.0117188
        k(   19) = (   0.0000000   0.1250000   0.3750000), wk =   0.0117188
        k(   20) = (   0.0000000   0.1250000   0.4375000), wk =   0.0117188
        k(   21) = (   0.0000000   0.1250000  -0.5000000), wk =   0.0117188
        k(   22) = (   0.0000000   0.1250000  -0.4375000), wk =   0.0058594
        k(   23) = (   0.0000000   0.1875000   0.3750000), wk =   0.0058594
        k(   24) = (   0.0000000   0.1875000   0.4375000), wk =   0.0117188
        k(   25) = (   0.0000000   0.1875000  -0.5000000), wk =   0.0117188
        k(   26) = (   0.0000000   0.1875000  -0.4375000), wk =   0.0117188
        k(   27) = (   0.0000000   0.2500000  -0.5000000), wk =   0.0058594
        k(   28) = (   0.0000000   0.2500000  -0.4375000), wk =   0.0117188
        k(   29) = (   0.0000000   0.2500000  -0.3750000), wk =   0.0058594
        k(   30) = (   0.0000000   0.3125000  -0.3750000), wk =   0.0058594
        k(   31) = (   0.0625000   0.0625000   0.0625000), wk =   0.0014648
        k(   32) = (   0.0625000   0.0625000   0.1250000), wk =   0.0058594
        k(   33) = (   0.0625000   0.0625000   0.1875000), wk =   0.0058594
        k(   34) = (   0.0625000   0.0625000   0.2500000), wk =   0.0058594
        k(   35) = (   0.0625000   0.0625000   0.3125000), wk =   0.0058594
        k(   36) = (   0.0625000   0.0625000   0.3750000), wk =   0.0058594
        k(   37) = (   0.0625000   0.0625000   0.4375000), wk =   0.0058594
        k(   38) = (   0.0625000   0.0625000  -0.5000000), wk =   0.0029297
        k(   39) = (   0.0625000   0.1250000   0.1875000), wk =   0.0058594
        k(   40) = (   0.0625000   0.1250000   0.2500000), wk =   0.0117188
        k(   41) = (   0.0625000   0.1250000   0.3125000), wk =   0.0117188
        k(   42) = (   0.0625000   0.1250000   0.3750000), wk =   0.0117188
        k(   43) = (   0.0625000   0.1250000   0.4375000), wk =   0.0117188
        k(   44) = (   0.0625000   0.1250000  -0.5000000), wk =   0.0117188
        k(   45) = (   0.0625000   0.1875000   0.0625000), wk =   0.0019531
        k(   46) = (   0.0625000   0.1875000   0.3125000), wk =   0.0058594
        k(   47) = (   0.0625000   0.1875000   0.3750000), wk =   0.0117188
        k(   48) = (   0.0625000   0.1875000   0.4375000), wk =   0.0117188
        k(   49) = (   0.0625000   0.1875000  -0.5000000), wk =   0.0117188
        k(   50) = (   0.0625000   0.1875000  -0.4375000), wk =   0.0058594
        k(   51) = (   0.0625000   0.2500000   0.0625000), wk =   0.0058594
        k(   52) = (   0.0625000   0.2500000   0.4375000), wk =   0.0058594
        k(   53) = (   0.0625000   0.2500000  -0.5000000), wk =   0.0117188
        k(   54) = (   0.0625000   0.2500000  -0.4375000), wk =   0.0117188
        k(   55) = (   0.0625000   0.3125000   0.0625000), wk =   0.0058594
        k(   56) = (   0.0625000   0.3125000   0.1250000), wk =   0.0058594
        k(   57) = (   0.0625000   0.3125000  -0.4375000), wk =   0.0058594
        k(   58) = (   0.0625000   0.3125000  -0.3750000), wk =   0.0058594
        k(   59) = (   0.0625000   0.3750000   0.0625000), wk =   0.0058594
        k(   60) = (   0.0625000   0.3750000   0.1250000), wk =   0.0117188
        k(   61) = (   0.0625000   0.4375000   0.0625000), wk =   0.0058594
        k(   62) = (   0.0625000   0.4375000   0.1250000), wk =   0.0117188
        k(   63) = (   0.0625000   0.4375000   0.1875000), wk =   0.0058594
        k(   64) = (   0.0625000  -0.5000000   0.0625000), wk =   0.0058594
        k(   65) = (   0.0625000  -0.5000000   0.1250000), wk =   0.0117188
        k(   66) = (   0.0625000  -0.5000000   0.1875000), wk =   0.0117188
        k(   67) = (   0.0625000  -0.4375000   0.0625000), wk =   0.0029297
        k(   68) = (   0.0625000  -0.4375000   0.1250000), wk =   0.0117188
        k(   69) = (   0.0625000  -0.4375000   0.1875000), wk =   0.0117188
        k(   70) = (   0.0625000  -0.4375000   0.2500000), wk =   0.0058594
        k(   71) = (   0.0625000  -0.3750000   0.1875000), wk =   0.0058594
        k(   72) = (   0.0625000  -0.3750000   0.2500000), wk =   0.0117188
        k(   73) = (   0.0625000  -0.3125000   0.3125000), wk =   0.0019531
        k(   74) = (   0.1250000   0.1250000   0.1250000), wk =   0.0014648
        k(   75) = (   0.1250000   0.1250000   0.1875000), wk =   0.0058594
        k(   76) = (   0.1250000   0.1250000   0.2500000), wk =   0.0058594
        k(   77) = (   0.1250000   0.1250000   0.3125000), wk =   0.0058594
        k(   78) = (   0.1250000   0.1250000   0.3750000), wk =   0.0058594
        k(   79) = (   0.1250000   0.1250000   0.4375000), wk =   0.0058594
        k(   80) = (   0.1250000   0.1250000  -0.5000000), wk =   0.0029297
        k(   81) = (   0.1250000   0.1875000   0.2500000), wk =   0.0058594
        k(   82) = (   0.1250000   0.1875000   0.3125000), wk =   0.0117188
        k(   83) = (   0.1250000   0.1875000   0.3750000), wk =   0.0117188
        k(   84) = (   0.1250000   0.1875000   0.4375000), wk =   0.0117188
        k(   85) = (   0.1250000   0.1875000  -0.5000000), wk =   0.0117188
        k(   86) = (   0.1250000   0.2500000   0.3750000), wk =   0.0058594
        k(   87) = (   0.1250000   0.2500000   0.4375000), wk =   0.0117188
        k(   88) = (   0.1250000   0.2500000  -0.5000000), wk =   0.0117188
        k(   89) = (   0.1250000   0.2500000  -0.4375000), wk =   0.0058594
        k(   90) = (   0.1250000   0.3125000  -0.5000000), wk =   0.0058594
        k(   91) = (   0.1250000   0.3125000  -0.4375000), wk =   0.0117188
        k(   92) = (   0.1250000   0.3750000   0.1250000), wk =   0.0019531
        k(   93) = (   0.1250000   0.3750000  -0.3750000), wk =   0.0019531
        k(   94) = (   0.1250000   0.4375000   0.1250000), wk =   0.0058594
        k(   95) = (   0.1250000  -0.5000000   0.1250000), wk =   0.0058594
        k(   96) = (   0.1250000  -0.5000000   0.1875000), wk =   0.0058594
        k(   97) = (   0.1250000  -0.4375000   0.1250000), wk =   0.0058594
        k(   98) = (   0.1250000  -0.4375000   0.1875000), wk =   0.0117188
        k(   99) = (   0.1250000  -0.3750000   0.1250000), wk =   0.0029297
        k(  100) = (   0.1250000  -0.3750000   0.1875000), wk =   0.0117188
        k(  101) = (   0.1250000  -0.3750000   0.2500000), wk =   0.0058594
        k(  102) = (   0.1250000  -0.3125000   0.2500000), wk =   0.0058594
        k(  103) = (   0.1875000   0.1875000   0.1875000), wk =   0.0014648
        k(  104) = (   0.1875000   0.1875000   0.2500000), wk =   0.0058594
        k(  105) = (   0.1875000   0.1875000   0.3125000), wk =   0.0058594
        k(  106) = (   0.1875000   0.1875000   0.3750000), wk =   0.0058594
        k(  107) = (   0.1875000   0.1875000   0.4375000), wk =   0.0058594
        k(  108) = (   0.1875000   0.1875000  -0.5000000), wk =   0.0029297
        k(  109) = (   0.1875000   0.2500000   0.3125000), wk =   0.0058594
        k(  110) = (   0.1875000   0.2500000   0.3750000), wk =   0.0117188
        k(  111) = (   0.1875000   0.2500000   0.4375000), wk =   0.0117188
        k(  112) = (   0.1875000   0.2500000  -0.5000000), wk =   0.0117188
        k(  113) = (   0.1875000   0.3125000   0.4375000), wk =   0.0058594
        k(  114) = (   0.1875000   0.3125000  -0.5000000), wk =   0.0117188
        k(  115) = (   0.1875000   0.3125000  -0.4375000), wk =   0.0058594
        k(  116) = (   0.1875000   0.3750000  -0.4375000), wk =   0.0058594
        k(  117) = (   0.1875000  -0.4375000   0.1875000), wk =   0.0019531
        k(  118) = (   0.1875000  -0.3750000   0.1875000), wk =   0.0058594
        k(  119) = (   0.1875000  -0.3125000   0.1875000), wk =   0.0029297
        k(  120) = (   0.1875000  -0.3125000   0.2500000), wk =   0.0058594
        k(  121) = (   0.2500000   0.2500000   0.2500000), wk =   0.0014648
        k(  122) = (   0.2500000   0.2500000   0.3125000), wk =   0.0058594
        k(  123) = (   0.2500000   0.2500000   0.3750000), wk =   0.0058594
        k(  124) = (   0.2500000   0.2500000   0.4375000), wk =   0.0058594
        k(  125) = (   0.2500000   0.2500000  -0.5000000), wk =   0.0029297
        k(  126) = (   0.2500000   0.3125000   0.3750000), wk =   0.0058594
        k(  127) = (   0.2500000   0.3125000   0.4375000), wk =   0.0117188
        k(  128) = (   0.2500000   0.3125000  -0.5000000), wk =   0.0117188
        k(  129) = (   0.2500000   0.3750000  -0.5000000), wk =   0.0058594
        k(  130) = (   0.2500000   0.3750000  -0.4375000), wk =   0.0058594
        k(  131) = (   0.2500000  -0.2500000   0.2500000), wk =   0.0004883
        k(  132) = (   0.3125000   0.3125000   0.3125000), wk =   0.0014648
        k(  133) = (   0.3125000   0.3125000   0.3750000), wk =   0.0058594
        k(  134) = (   0.3125000   0.3125000   0.4375000), wk =   0.0058594
        k(  135) = (   0.3125000   0.3125000  -0.5000000), wk =   0.0029297
        k(  136) = (   0.3125000   0.3750000   0.4375000), wk =   0.0058594
        k(  137) = (   0.3125000   0.3750000  -0.5000000), wk =   0.0117188
        k(  138) = (   0.3125000   0.4375000  -0.4375000), wk =   0.0019531
        k(  139) = (   0.3750000   0.3750000   0.3750000), wk =   0.0014648
        k(  140) = (   0.3750000   0.3750000   0.4375000), wk =   0.0058594
        k(  141) = (   0.3750000   0.3750000  -0.5000000), wk =   0.0029297
        k(  142) = (   0.3750000   0.4375000  -0.5000000), wk =   0.0058594
        k(  143) = (   0.4375000   0.4375000   0.4375000), wk =   0.0014648
        k(  144) = (   0.4375000   0.4375000  -0.5000000), wk =   0.0029297
        k(  145) = (  -0.5000000  -0.5000000  -0.5000000), wk =   0.0002441

     Dense  grid:    47597 G-vectors     FFT dimensions: (  50,  50,  50)

     Smooth grid:     9189 G-vectors     FFT dimensions: (  30,  30,  30)

     Dynamical RAM for                 wfc:       0.03 MB

     Dynamical RAM for     wfc (w. buffer):       0.52 MB

     Dynamical RAM for           str. fact:       0.09 MB

     Dynamical RAM for           local pot:       0.00 MB

     Dynamical RAM for          nlocal pot:       0.04 MB

     Dynamical RAM for                qrad:       2.64 MB

     Dynamical RAM for          rho,v,vnew:       1.35 MB

     Dynamical RAM for               rhoin:       0.45 MB

     Dynamical RAM for            rho*nmix:       2.91 MB

     Dynamical RAM for           G-vectors:       0.35 MB

     Dynamical RAM for          h,s,v(r/c):       0.03 MB

     Dynamical RAM for          <psi|beta>:       0.00 MB

     Dynamical RAM for                 psi:       0.05 MB

     Dynamical RAM for                hpsi:       0.05 MB

     Dynamical RAM for                spsi:       0.05 MB

     Dynamical RAM for      wfcinit/wfcrot:       0.06 MB

     Dynamical RAM for           addusdens:       1.23 MB

     Dynamical RAM for          addusforce:       1.16 MB

     Dynamical RAM for         addusstress:       1.23 MB

     Estimated static dynamical RAM per process >       6.42 MB

     Estimated max dynamical RAM per process >      10.56 MB

     Estimated total dynamical RAM >    1002.46 MB

     Check: negative core charge=   -0.000010
     Generating pointlists ...
     new r_m :   0.3572 (alat units)  1.9362 (a.u.) for type    1

     Initial potential from superposition of free atoms

     starting charge      15.9996, renormalised to      16.0000
     Starting wfcs are   13 randomized atomic wfcs
     Checking if some PAW data can be deallocated... 

     total cpu time spent up to now is        1.1 secs

     per-process dynamical memory:   188.8 Mb

     Self-consistent Calculation

     iteration #  1     ecut=    90.00 Ry     beta= 0.20
     Davidson diagonalization with overlap

---- Real-time Memory Report at c_bands before calling an iterative solver
           318 MiB given to the printing process from OS
           184 MiB allocation reported by mallinfo(arena+hblkhd)
        450330 MiB available memory on the node where the printing process lives
------------------
     ethr =  1.00E-02,  avg # of iterations =  3.1

     total cpu time spent up to now is        1.6 secs

     total energy              =    -329.10472526 Ry
     estimated scf accuracy    <       0.27455791 Ry

     total magnetization       =     3.21 Bohr mag/cell
     absolute magnetization    =     3.25 Bohr mag/cell

     iteration #  2     ecut=    90.00 Ry     beta= 0.20
     Davidson diagonalization with overlap

---- Real-time Memory Report at c_bands before calling an iterative solver
           355 MiB given to the printing process from OS
           185 MiB allocation reported by mallinfo(arena+hblkhd)
        450196 MiB available memory on the node where the printing process lives
------------------
     ethr =  1.72E-03,  avg # of iterations =  1.5

     negative rho (up, down):  0.000E+00 3.784E-05

     total cpu time spent up to now is        1.9 secs

     total energy              =    -329.23048444 Ry
     estimated scf accuracy    <       0.17720208 Ry

     total magnetization       =     3.12 Bohr mag/cell
     absolute magnetization    =     3.17 Bohr mag/cell

     iteration #  3     ecut=    90.00 Ry     beta= 0.20
     Davidson diagonalization with overlap

---- Real-time Memory Report at c_bands before calling an iterative solver
           355 MiB given to the printing process from OS
           185 MiB allocation reported by mallinfo(arena+hblkhd)
        450196 MiB available memory on the node where the printing process lives
------------------
     ethr =  1.11E-03,  avg # of iterations =  1.0

     negative rho (up, down):  0.000E+00 6.050E-05

     total cpu time spent up to now is        2.2 secs

     total energy              =    -329.25872205 Ry
     estimated scf accuracy    <       0.03122822 Ry

     total magnetization       =     2.73 Bohr mag/cell
     absolute magnetization    =     2.86 Bohr mag/cell

     iteration #  4     ecut=    90.00 Ry     beta= 0.20
     Davidson diagonalization with overlap

---- Real-time Memory Report at c_bands before calling an iterative solver
           356 MiB given to the printing process from OS
           185 MiB allocation reported by mallinfo(arena+hblkhd)
        450198 MiB available memory on the node where the printing process lives
------------------
     ethr =  1.95E-04,  avg # of iterations =  1.9

     negative rho (up, down):  0.000E+00 5.043E-05

     total cpu time spent up to now is        2.6 secs

     total energy              =    -329.26806519 Ry
     estimated scf accuracy    <       0.00358184 Ry

     total magnetization       =     2.33 Bohr mag/cell
     absolute magnetization    =     2.50 Bohr mag/cell

     iteration #  5     ecut=    90.00 Ry     beta= 0.20
     Davidson diagonalization with overlap

---- Real-time Memory Report at c_bands before calling an iterative solver
           356 MiB given to the printing process from OS
           185 MiB allocation reported by mallinfo(arena+hblkhd)
        450194 MiB available memory on the node where the printing process lives
------------------
     ethr =  2.24E-05,  avg # of iterations =  3.7

     negative rho (up, down):  0.000E+00 2.951E-05

     total cpu time spent up to now is        3.0 secs

     total energy              =    -329.26675097 Ry
     estimated scf accuracy    <       0.00658834 Ry

     total magnetization       =     2.38 Bohr mag/cell
     absolute magnetization    =     2.53 Bohr mag/cell

     iteration #  6     ecut=    90.00 Ry     beta= 0.20
     Davidson diagonalization with overlap

---- Real-time Memory Report at c_bands before calling an iterative solver
           356 MiB given to the printing process from OS
           185 MiB allocation reported by mallinfo(arena+hblkhd)
        450192 MiB available memory on the node where the printing process lives
------------------
     ethr =  2.24E-05,  avg # of iterations =  1.8

     negative rho (up, down):  0.000E+00 3.100E-05

     total cpu time spent up to now is        3.4 secs

     total energy              =    -329.27037882 Ry
     estimated scf accuracy    <       0.00143993 Ry

     total magnetization       =     2.19 Bohr mag/cell
     absolute magnetization    =     2.33 Bohr mag/cell

     iteration #  7     ecut=    90.00 Ry     beta= 0.20
     Davidson diagonalization with overlap

---- Real-time Memory Report at c_bands before calling an iterative solver
           356 MiB given to the printing process from OS
           185 MiB allocation reported by mallinfo(arena+hblkhd)
        450191 MiB available memory on the node where the printing process lives
------------------
     ethr =  9.00E-06,  avg # of iterations =  1.2

     negative rho (up, down):  0.000E+00 2.921E-05

     total cpu time spent up to now is        3.7 secs

     total energy              =    -329.27079808 Ry
     estimated scf accuracy    <       0.00012903 Ry

     total magnetization       =     2.26 Bohr mag/cell
     absolute magnetization    =     2.39 Bohr mag/cell

     iteration #  8     ecut=    90.00 Ry     beta= 0.20
     Davidson diagonalization with overlap

---- Real-time Memory Report at c_bands before calling an iterative solver
           356 MiB given to the printing process from OS
           185 MiB allocation reported by mallinfo(arena+hblkhd)
        450188 MiB available memory on the node where the printing process lives
------------------
     ethr =  8.06E-07,  avg # of iterations =  2.4

     negative rho (up, down):  0.000E+00 2.994E-05

     total cpu time spent up to now is        4.1 secs

     total energy              =    -329.27084039 Ry
     estimated scf accuracy    <       0.00002857 Ry

     total magnetization       =     2.25 Bohr mag/cell
     absolute magnetization    =     2.38 Bohr mag/cell

     iteration #  9     ecut=    90.00 Ry     beta= 0.20
     Davidson diagonalization with overlap

---- Real-time Memory Report at c_bands before calling an iterative solver
           356 MiB given to the printing process from OS
           185 MiB allocation reported by mallinfo(arena+hblkhd)
        450188 MiB available memory on the node where the printing process lives
------------------
     ethr =  1.79E-07,  avg # of iterations =  2.2

     negative rho (up, down):  0.000E+00 2.937E-05

     total cpu time spent up to now is        4.5 secs

     total energy              =    -329.27084536 Ry
     estimated scf accuracy    <       0.00001042 Ry

     total magnetization       =     2.25 Bohr mag/cell
     absolute magnetization    =     2.38 Bohr mag/cell

     iteration # 10     ecut=    90.00 Ry     beta= 0.20
     Davidson diagonalization with overlap

---- Real-time Memory Report at c_bands before calling an iterative solver
           356 MiB given to the printing process from OS
           185 MiB allocation reported by mallinfo(arena+hblkhd)
        450188 MiB available memory on the node where the printing process lives
------------------
     ethr =  6.51E-08,  avg # of iterations =  1.9

     negative rho (up, down):  0.000E+00 2.992E-05

     total cpu time spent up to now is        4.8 secs

     total energy              =    -329.27086207 Ry
     estimated scf accuracy    <       0.00000605 Ry

     total magnetization       =     2.25 Bohr mag/cell
     absolute magnetization    =     2.37 Bohr mag/cell

     iteration # 11     ecut=    90.00 Ry     beta= 0.20
     Davidson diagonalization with overlap

---- Real-time Memory Report at c_bands before calling an iterative solver
           356 MiB given to the printing process from OS
           185 MiB allocation reported by mallinfo(arena+hblkhd)
        450187 MiB available memory on the node where the printing process lives
------------------
     ethr =  3.78E-08,  avg # of iterations =  1.3

     negative rho (up, down):  0.000E+00 2.980E-05

     total cpu time spent up to now is        5.2 secs

     total energy              =    -329.27086660 Ry
     estimated scf accuracy    <       0.00000008 Ry

     total magnetization       =     2.25 Bohr mag/cell
     absolute magnetization    =     2.37 Bohr mag/cell

     iteration # 12     ecut=    90.00 Ry     beta= 0.20
     Davidson diagonalization with overlap

---- Real-time Memory Report at c_bands before calling an iterative solver
           356 MiB given to the printing process from OS
           185 MiB allocation reported by mallinfo(arena+hblkhd)
        450187 MiB available memory on the node where the printing process lives
------------------
     ethr =  4.85E-10,  avg # of iterations =  4.7

     negative rho (up, down):  0.000E+00 2.987E-05

     total cpu time spent up to now is        5.6 secs

     total energy              =    -329.27086893 Ry
     estimated scf accuracy    <       0.00000040 Ry

     total magnetization       =     2.25 Bohr mag/cell
     absolute magnetization    =     2.37 Bohr mag/cell

     iteration # 13     ecut=    90.00 Ry     beta= 0.20
     Davidson diagonalization with overlap

---- Real-time Memory Report at c_bands before calling an iterative solver
           356 MiB given to the printing process from OS
           185 MiB allocation reported by mallinfo(arena+hblkhd)
        450186 MiB available memory on the node where the printing process lives
------------------
     ethr =  4.85E-10,  avg # of iterations =  1.7

     negative rho (up, down):  0.000E+00 2.988E-05

     total cpu time spent up to now is        6.0 secs

     total energy              =    -329.27087028 Ry
     estimated scf accuracy    <       0.00000019 Ry

     total magnetization       =     2.25 Bohr mag/cell
     absolute magnetization    =     2.37 Bohr mag/cell

     iteration # 14     ecut=    90.00 Ry     beta= 0.20
     Davidson diagonalization with overlap

---- Real-time Memory Report at c_bands before calling an iterative solver
           356 MiB given to the printing process from OS
           185 MiB allocation reported by mallinfo(arena+hblkhd)
        450189 MiB available memory on the node where the printing process lives
------------------
     ethr =  4.85E-10,  avg # of iterations =  2.0

     negative rho (up, down):  0.000E+00 2.986E-05

     total cpu time spent up to now is        6.3 secs

     total energy              =    -329.27087105 Ry
     estimated scf accuracy    <          4.4E-09 Ry

     total magnetization       =     2.25 Bohr mag/cell
     absolute magnetization    =     2.37 Bohr mag/cell

     iteration # 15     ecut=    90.00 Ry     beta= 0.20
     Davidson diagonalization with overlap

---- Real-time Memory Report at c_bands before calling an iterative solver
           356 MiB given to the printing process from OS
           185 MiB allocation reported by mallinfo(arena+hblkhd)
        450190 MiB available memory on the node where the printing process lives
------------------
     ethr =  2.76E-11,  avg # of iterations =  2.7

     negative rho (up, down):  0.000E+00 2.986E-05

     total cpu time spent up to now is        6.7 secs

     total energy              =    -329.27087153 Ry
     estimated scf accuracy    <          5.7E-10 Ry

     total magnetization       =     2.25 Bohr mag/cell
     absolute magnetization    =     2.37 Bohr mag/cell

     iteration # 16     ecut=    90.00 Ry     beta= 0.20
     Davidson diagonalization with overlap

---- Real-time Memory Report at c_bands before calling an iterative solver
           356 MiB given to the printing process from OS
           185 MiB allocation reported by mallinfo(arena+hblkhd)
        450186 MiB available memory on the node where the printing process lives
------------------
     ethr =  3.59E-12,  avg # of iterations =  2.7

     negative rho (up, down):  0.000E+00 2.983E-05

     Magnetic moment per site  (integrated on atomic sphere of radius R)
     atom   1 (R=0.357)  charge= 14.4215  magn=  2.3024

     total cpu time spent up to now is        7.1 secs

     End of self-consistent calculation

 ------ SPIN UP ------------


          k = 0.0000 0.0000 0.0000 (  1157 PWs)   bands (ev):

   -70.6401 -36.4641 -36.4641 -36.4641   9.1262  15.1919  15.1919  15.1919
    16.3368  16.3368  41.9765  41.9765

     occupation numbers 
     1.0000   1.0000   1.0000   1.0000   1.0000   1.0000   1.0000   1.0000
     1.0000   1.0000   0.0000   0.0000

          k = 0.0000-0.0625 0.0625 (  1145 PWs)   bands (ev):

   -70.6375 -36.4780 -36.4688 -36.4640   9.2837  15.1500  15.1888  15.2750
    16.2953  16.3402  40.8871  41.7275

     occupation numbers 
     1.0000   1.0000   1.0000   1.0000   1.0000   1.0000   1.0000   1.0000
     1.0000   1.0000   0.0000   0.0000

          k = 0.0000-0.1250 0.1250 (  1141 PWs)   bands (ev):

   -70.6303 -36.5179 -36.4821 -36.4640   9.7442  15.0317  15.1633  15.5163
    16.2068  16.3511  38.5046  40.8558

     occupation numbers 
     1.0000   1.0000   1.0000   1.0000   1.0000   1.0000   1.0000   1.0000
     1.0000   1.0000   0.0000   0.0000

          k = 0.0000-0.1875 0.1875 (  1139 PWs)   bands (ev):

   -70.6194 -36.5772 -36.5020 -36.4639  10.4647  14.8582  15.0933  15.8920
    16.1549  16.3714  35.6779  39.5471

     occupation numbers 
     1.0000   1.0000   1.0000   1.0000   1.0000   1.0000   1.0000   1.0000
     1.0000   1.0000   0.0000   0.0000

          k = 0.0000-0.2500 0.2500 (  1134 PWs)   bands (ev):

   -70.6066 -36.6466 -36.5255 -36.4637  11.3403  14.6587  15.0509  16.1879
    16.3606  16.4015  32.7611  38.2007

     occupation numbers 
     1.0000   1.0000   1.0000   1.0000   1.0000   1.0000   1.0000   1.0000
     1.0000   1.0000   0.0000   0.0000

          k = 0.0000-0.3125 0.3125 (  1144 PWs)   bands (ev):

   -70.5937 -36.7157 -36.5490 -36.4637  12.1312  14.4644  15.2874  16.2863
    16.4386  16.8616  29.9364  37.0314

     occupation numbers 
     1.0000   1.0000   1.0000   1.0000   1.0000   1.0000   1.0000   1.0000
     1.0000   1.0000   0.0000   0.0000

          k = 0.0000-0.3750 0.3750 (  1148 PWs)   bands (ev):

   -70.5828 -36.7738 -36.5687 -36.4636  12.5474  14.3035  16.0010  16.4756
    16.4765  17.3168  27.3595  36.1405

     occupation numbers 
     1.0000   1.0000   1.0000   1.0000   1.0000   1.0000   1.0000   1.0000
     1.0000   0.9239   0.0000   0.0000

          k = 0.0000-0.4375 0.4375 (  1148 PWs)   bands (ev):

   -70.5755 -36.8125 -36.5819 -36.4635  12.6518  14.1978  16.3550  16.5034
    17.3088  17.6395  25.3004  35.5847

     occupation numbers 
     1.0000   1.0000   1.0000   1.0000   1.0000   1.0000   1.0000   1.0000
     0.9537   0.0023   0.0000   0.0000

          k = 0.0000 0.5000-0.5000 (  1148 PWs)   bands (ev):

   -70.5730 -36.8260 -36.5865 -36.4635  12.6615  14.1611  16.4007  16.5138
    17.7568  17.8847  24.4108  35.3959

     occupation numbers 
     1.0000   1.0000   1.0000   1.0000   1.0000   1.0000   1.0000   1.0000
     0.0000   0.0000   0.0000   0.0000

          k =-0.0625-0.0625 0.1250 (  1139 PWs)   bands (ev):

   -70.6326 -36.5056 -36.4736 -36.4675   9.5930  15.0959  15.1368  15.4495
    16.2228  16.3539  39.4947  40.4044

     occupation numbers 
     1.0000   1.0000   1.0000   1.0000   1.0000   1.0000   1.0000   1.0000
     1.0000   1.0000   0.0000   0.0000

          k =-0.0625-0.1250 0.1875 (  1146 PWs)   bands (ev):

   -70.6236 -36.5546 -36.4894 -36.4689  10.1863  14.9542  15.0698  15.7734
    16.1371  16.3831  37.1087  39.0036

     occupation numbers 
     1.0000   1.0000   1.0000   1.0000   1.0000   1.0000   1.0000   1.0000
     1.0000   1.0000   0.0000   0.0000

          k =-0.0625-0.1875 0.2500 (  1141 PWs)   bands (ev):

   -70.6117 -36.6173 -36.5124 -36.4691  10.9975  14.7636  14.9824  16.1160
    16.2203  16.4220  34.2739  37.7464

     occupation numbers 
     1.0000   1.0000   1.0000   1.0000   1.0000   1.0000   1.0000   1.0000
     1.0000   1.0000   0.0000   0.0000

          k =-0.0625-0.2500 0.3125 (  1136 PWs)   bands (ev):

   -70.5989 -36.6845 -36.5378 -36.4691  11.8660  14.5640  15.0044  16.1878
    16.4643  16.7443  31.3985  36.6205

     occupation numbers 
     1.0000   1.0000   1.0000   1.0000   1.0000   1.0000   1.0000   1.0000
     1.0000   1.0000   0.0000   0.0000

          k =-0.0625-0.3125 0.3750 (  1140 PWs)   bands (ev):

   -70.5870 -36.7461 -36.5612 -36.4691  12.4852  14.3868  15.3947  16.3133
    16.5316  17.3067  28.6732  35.6927

     occupation numbers 
     1.0000   1.0000   1.0000   1.0000   1.0000   1.0000   1.0000   1.0000
     1.0000   0.9608   0.0000   0.0000

          k =-0.0625-0.3750 0.4375 (  1145 PWs)   bands (ev):

   -70.5779 -36.7930 -36.5792 -36.4691  12.7059  14.2553  16.0032  16.4079
    16.7898  17.9179  26.2906  35.0292

     occupation numbers 
     1.0000   1.0000   1.0000   1.0000   1.0000   1.0000   1.0000   1.0000
     1.0000   0.0000   0.0000   0.0000

          k =-0.0625 0.5625-0.5000 (  1144 PWs)   bands (ev):

   -70.5730 -36.8182 -36.5889 -36.4691  12.7376  14.1855  16.2769  16.4023
    17.1898  18.5621  24.6745  34.6820

     occupation numbers 
     1.0000   1.0000   1.0000   1.0000   1.0000   1.0000   1.0000   1.0000
     1.0698   0.0000   0.0000   0.0000

          k =-0.1250-0.1250 0.2500 (  1146 PWs)   bands (ev):

   -70.6135 -36.6064 -36.5026 -36.4768  10.8790  14.8555  14.8913  16.0744
    16.1913  16.4447  35.4922  36.6112

     occupation numbers 
     1.0000   1.0000   1.0000   1.0000   1.0000   1.0000   1.0000   1.0000
     1.0000   1.0000   0.0000   0.0000

          k =-0.1250-0.1875 0.3125 (  1140 PWs)   bands (ev):

   -70.6017 -36.6643 -36.5268 -36.4804  11.7241  14.6607  14.7910  16.0878
    16.4945  16.7515  32.9931  35.0469

     occupation numbers 
     1.0000   1.0000   1.0000   1.0000   1.0000   1.0000   1.0000   1.0000
     1.0000   1.0000   0.0000   0.0000

          k =-0.1250-0.2500 0.3750 (  1145 PWs)   bands (ev):

   -70.5898 -36.7203 -36.5547 -36.4818  12.4937  14.4675  14.8737  16.1806
    16.5632  17.4090  30.2156  34.0006

     occupation numbers 
     1.0000   1.0000   1.0000   1.0000   1.0000   1.0000   1.0000   1.0000
     1.0000   0.4537   0.0000   0.0000

          k =-0.1250-0.3125 0.4375 (  1144 PWs)   bands (ev):

   -70.5797 -36.7667 -36.5795 -36.4824  12.8831  14.3275  15.2653  16.3053
    16.6766  18.2070  27.6144  33.2237

     occupation numbers 
     1.0000   1.0000   1.0000   1.0000   1.0000   1.0000   1.0000   1.0000
     1.0000   0.0000   0.0000   0.0000

          k =-0.1250 0.6250-0.5000 (  1150 PWs)   bands (ev):

   -70.5730 -36.7974 -36.5966 -36.4828  12.9576  14.2412  15.6708  16.3667
    16.8933  19.1496  25.4690  32.7302

     occupation numbers 
     1.0000   1.0000   1.0000   1.0000   1.0000   1.0000   1.0000   1.0000
     1.0000   0.0000   0.0000   0.0000

          k =-0.1250 0.5625-0.4375 (  1145 PWs)   bands (ev):

   -70.5706 -36.8080 -36.6026 -36.4829  12.9564  14.2117  15.8118  16.3727
    17.0177  19.7222  24.4849  32.5597

     occupation numbers 
     1.0000   1.0000   1.0000   1.0000   1.0000   1.0000   1.0000   1.0000
     1.0018   0.0000   0.0000   0.0000

          k =-0.1875-0.1875 0.3750 (  1140 PWs)   bands (ev):

   -70.5908 -36.7094 -36.5511 -36.4893  12.5108  14.4814  14.7027  16.1190
    16.5736  17.4547  31.6289  32.4555

     occupation numbers 
     1.0000   1.0000   1.0000   1.0000   1.0000   1.0000   1.0000   1.0000
     1.0000   0.2419   0.0000   0.0000

          k =-0.1875-0.2500 0.4375 (  1145 PWs)   bands (ev):

   -70.5807 -36.7466 -36.5815 -36.4939  13.0933  14.3254  14.8003  16.2146
    16.6505  18.3606  29.2076  31.2400

     occupation numbers 
     1.0000   1.0000   1.0000   1.0000   1.0000   1.0000   1.0000   1.0000
     1.0000   0.0000   0.0000   0.0000

          k =-0.1875 0.6875-0.5000 (  1148 PWs)   bands (ev):

   -70.5730 -36.7723 -36.6088 -36.4961  13.2804  14.2634  15.0604  16.3260
    16.7594  19.4960  26.7543  30.5804

     occupation numbers 
     1.0000   1.0000   1.0000   1.0000   1.0000   1.0000   1.0000   1.0000
     1.0000   0.0000   0.0000   0.0000

          k =-0.1875 0.6250-0.4375 (  1146 PWs)   bands (ev):

   -70.5688 -36.7851 -36.6248 -36.4970  13.2823  14.2424  15.2529  16.3815
    16.8753  20.6435  24.9113  30.2425

     occupation numbers 
     1.0000   1.0000   1.0000   1.0000   1.0000   1.0000   1.0000   1.0000
     1.0000   0.0000   0.0000   0.0000

          k =-0.2500 0.7500-0.5000 (  1157 PWs)   bands (ev):

   -70.5730 -36.7598 -36.6162 -36.5014  13.5032  14.2004  14.8109  16.3050
    16.7165  19.6063  28.1070  28.9304

     occupation numbers 
     1.0000   1.0000   1.0000   1.0000   1.0000   1.0000   1.0000   1.0000
     1.0000   0.0000   0.0000   0.0000

          k =-0.2500 0.6875-0.4375 (  1152 PWs)   bands (ev):

   -70.5678 -36.7609 -36.6482 -36.5050  13.6307  14.2123  14.8285  16.4147
    16.7636  21.0874  26.0306  28.1694

     occupation numbers 
     1.0000   1.0000   1.0000   1.0000   1.0000   1.0000   1.0000   1.0000
     1.0000   0.0000   0.0000   0.0000

          k =-0.2500 0.6250-0.3750 (  1152 PWs)   bands (ev):

   -70.5660 -36.7586 -36.6624 -36.5061  13.6332  14.2516  14.8301  16.4631
    16.7840  22.1360  24.7089  27.9808

     occupation numbers 
     1.0000   1.0000   1.0000   1.0000   1.0000   1.0000   1.0000   1.0000
     1.0000   0.0000   0.0000   0.0000

          k =-0.3125 0.6875-0.3750 (  1158 PWs)   bands (ev):

   -70.5650 -36.7355 -36.6897 -36.5091  13.8353  14.2822  14.5746  16.5458
    16.6982  22.8703  24.9414  26.6849

     occupation numbers 
     1.0000   1.0000   1.0000   1.0000   1.0000   1.0000   1.0000   1.0000
     1.0000   0.0000   0.0000   0.0000

          k = 0.0000 0.0000 0.1250 (  1133 PWs)   bands (ev):

   -70.6350 -36.4823 -36.4734 -36.4734   9.4396  15.1913  15.1913  15.2763
    16.2010  16.3901  40.2417  41.5499

     occupation numbers 
     1.0000   1.0000   1.0000   1.0000   1.0000   1.0000   1.0000   1.0000
     1.0000   1.0000   0.0000   0.0000

          k = 0.0000-0.0625 0.1875 (  1137 PWs)   bands (ev):

   -70.6278 -36.5189 -36.4869 -36.4758   9.8949  15.1007  15.1799  15.4944
    16.0605  16.4374  38.4172  40.5019

     occupation numbers 
     1.0000   1.0000   1.0000   1.0000   1.0000   1.0000   1.0000   1.0000
     1.0000   1.0000   0.0000   0.0000

          k = 0.0000-0.1250 0.2500 (  1141 PWs)   bands (ev):

   -70.6171 -36.5771 -36.5070 -36.4755  10.6062  14.9346  15.1109  15.8695
    15.9802  16.4842  35.7604  39.1249

     occupation numbers 
     1.0000   1.0000   1.0000   1.0000   1.0000   1.0000   1.0000   1.0000
     1.0000   1.0000   0.0000   0.0000

          k = 0.0000-0.1875 0.3125 (  1138 PWs)   bands (ev):

   -70.6043 -36.6455 -36.5306 -36.4750  11.4680  14.7412  15.0228  16.0338
    16.3400  16.5415  32.8712  37.8510

     occupation numbers 
     1.0000   1.0000   1.0000   1.0000   1.0000   1.0000   1.0000   1.0000
     1.0000   1.0000   0.0000   0.0000

          k = 0.0000-0.2500 0.3750 (  1140 PWs)   bands (ev):

   -70.5916 -36.7135 -36.5541 -36.4745  12.2446  14.5523  15.1246  16.1951
    16.6556  16.8441  30.0440  36.7675

     occupation numbers 
     1.0000   1.0000   1.0000   1.0000   1.0000   1.0000   1.0000   1.0000
     1.0000   1.0000   0.0000   0.0000

          k = 0.0000-0.3125 0.4375 (  1146 PWs)   bands (ev):

   -70.5808 -36.7708 -36.5740 -36.4741  12.6500  14.3957  15.5178  16.3327
    17.0785  17.3029  27.4509  35.9423

     occupation numbers 
     1.0000   1.0000   1.0000   1.0000   1.0000   1.0000   1.0000   1.0000
     1.0103   0.9734   0.0000   0.0000

          k = 0.0000-0.3750 0.5000 (  1145 PWs)   bands (ev):

   -70.5736 -36.8089 -36.5873 -36.4737  12.7461  14.2928  15.8607  16.3468
    17.6285  17.9692  25.3558  35.4265

     occupation numbers 
     1.0000   1.0000   1.0000   1.0000   1.0000   1.0000   1.0000   1.0000
     0.0033   0.0000   0.0000   0.0000

          k = 0.0000 0.5625-0.4375 (  1148 PWs)   bands (ev):

   -70.5711 -36.8223 -36.5919 -36.4736  12.7527  14.2570  15.9832  16.3274
    17.7469  18.5313  24.4323  35.2511

     occupation numbers 
     1.0000   1.0000   1.0000   1.0000   1.0000   1.0000   1.0000   1.0000
     0.0000   0.0000   0.0000   0.0000

          k =-0.0625-0.0625 0.2500 (  1143 PWs)   bands (ev):

   -70.6189 -36.5593 -36.5011 -36.4854  10.4724  15.0621  15.1083  15.7542
    15.9043  16.5125  36.8776  38.3223

     occupation numbers 
     1.0000   1.0000   1.0000   1.0000   1.0000   1.0000   1.0000   1.0000
     1.0000   1.0000   0.0000   0.0000

          k =-0.0625-0.1250 0.3125 (  1142 PWs)   bands (ev):

   -70.6073 -36.6179 -36.5233 -36.4881  11.2571  14.9016  14.9959  15.8706
    16.1817  16.5964  34.4462  36.6059

     occupation numbers 
     1.0000   1.0000   1.0000   1.0000   1.0000   1.0000   1.0000   1.0000
     1.0000   1.0000   0.0000   0.0000

          k =-0.0625-0.1875 0.3750 (  1141 PWs)   bands (ev):

   -70.5947 -36.6821 -36.5488 -36.4882  12.0918  14.6984  14.9218  15.9929
    16.5955  16.8257  31.6147  35.4328

     occupation numbers 
     1.0000   1.0000   1.0000   1.0000   1.0000   1.0000   1.0000   1.0000
     1.0000   1.0000   0.0000   0.0000

          k =-0.0625-0.2500 0.4375 (  1144 PWs)   bands (ev):

   -70.5831 -36.7414 -36.5726 -36.4878  12.6857  14.5370  15.0388  16.1793
    16.8410  17.4371  28.8759  34.5146

     occupation numbers 
     1.0000   1.0000   1.0000   1.0000   1.0000   1.0000   1.0000   1.0000
     1.0000   0.3156   0.0000   0.0000

          k =-0.0625-0.3125 0.5000 (  1143 PWs)   bands (ev):

   -70.5742 -36.7866 -36.5908 -36.4874  12.8897  14.4237  15.3237  16.2682
    17.2182  18.2927  26.4472  33.8540

     occupation numbers 
     1.0000   1.0000   1.0000   1.0000   1.0000   1.0000   1.0000   1.0000
     1.0824   0.0000   0.0000   0.0000

          k =-0.0625 0.6250-0.4375 (  1145 PWs)   bands (ev):

   -70.5693 -36.8110 -36.6007 -36.4871  12.9105  14.3631  15.5229  16.2689
    17.4898  19.2155  24.7445  33.5028

     occupation numbers 
     1.0000   1.0000   1.0000   1.0000   1.0000   1.0000   1.0000   1.0000
     0.1304   0.0000   0.0000   0.0000

          k =-0.1250 0.1250 0.1250 (  1142 PWs)   bands (ev):

   -70.6258 -36.5486 -36.4739 -36.4739  10.0422  14.9941  14.9941  15.7667
    16.2743  16.2743  38.2972  38.2972

     occupation numbers 
     1.0000   1.0000   1.0000   1.0000   1.0000   1.0000   1.0000   1.0000
     1.0000   1.0000   0.0000   0.0000

          k =-0.1250-0.1250 0.3750 (  1134 PWs)   bands (ev):

   -70.5958 -36.6683 -36.5462 -36.4967  12.0395  14.7051  14.9188  15.8763
    16.5541  16.8672  33.0028  33.9249

     occupation numbers 
     1.0000   1.0000   1.0000   1.0000   1.0000   1.0000   1.0000   1.0000
     1.0000   1.0000   0.0000   0.0000

          k =-0.1250-0.1875 0.4375 (  1139 PWs)   bands (ev):

   -70.5843 -36.7184 -36.5742 -36.5001  12.7511  14.4880  14.9037  16.0057
    16.7183  17.5642  30.5140  32.5536

     occupation numbers 
     1.0000   1.0000   1.0000   1.0000   1.0000   1.0000   1.0000   1.0000
     1.0000   0.0234   0.0000   0.0000

          k =-0.1250-0.2500 0.5000 (  1143 PWs)   bands (ev):

   -70.5745 -36.7603 -36.6001 -36.5011  13.1275  14.4125  14.9492  16.1705
    16.9183  18.5482  27.8951  31.7442

     occupation numbers 
     1.0000   1.0000   1.0000   1.0000   1.0000   1.0000   1.0000   1.0000
     1.0000   0.0000   0.0000   0.0000

          k =-0.1250 0.6875-0.4375 (  1152 PWs)   bands (ev):

   -70.5680 -36.7880 -36.6181 -36.5013  13.1922  14.4169  15.0474  16.2502
    17.1645  19.7508  25.6598  31.2371

     occupation numbers 
     1.0000   1.0000   1.0000   1.0000   1.0000   1.0000   1.0000   1.0000
     1.0529   0.0000   0.0000   0.0000

          k =-0.1250 0.6250-0.3750 (  1154 PWs)   bands (ev):

   -70.5657 -36.7977 -36.6244 -36.5013  13.1845  14.4193  15.0969  16.2653
    17.2757  20.5015  24.5645  31.0615

     occupation numbers 
     1.0000   1.0000   1.0000   1.0000   1.0000   1.0000   1.0000   1.0000
     1.0421   0.0000   0.0000   0.0000

          k =-0.1875 0.1875 0.1250 (  1145 PWs)   bands (ev):

   -70.6157 -36.6034 -36.4927 -36.4745  10.7476  14.8032  14.8780  16.1995
    16.2203  16.3342  35.7303  37.0932

     occupation numbers 
     1.0000   1.0000   1.0000   1.0000   1.0000   1.0000   1.0000   1.0000
     1.0000   1.0000   0.0000   0.0000

          k =-0.1875-0.1875 0.5000 (  1143 PWs)   bands (ev):

   -70.5747 -36.7472 -36.6067 -36.5065  13.2860  14.2547  14.9126  16.1155
    16.8211  18.6332  29.3439  30.0598

     occupation numbers 
     1.0000   1.0000   1.0000   1.0000   1.0000   1.0000   1.0000   1.0000
     1.0000   0.0000   0.0000   0.0000

          k =-0.1875 0.7500-0.4375 (  1147 PWs)   bands (ev):

   -70.5673 -36.7654 -36.6374 -36.5093  13.5341  14.2129  14.8443  16.2744
    16.9391  19.9985  27.0766  29.1463

     occupation numbers 
     1.0000   1.0000   1.0000   1.0000   1.0000   1.0000   1.0000   1.0000
     1.0001   0.0000   0.0000   0.0000

          k =-0.1875 0.6875-0.3750 (  1153 PWs)   bands (ev):

   -70.5633 -36.7732 -36.6565 -36.5103  13.5434  14.3557  14.7247  16.3671
    17.0421  21.4161  25.0867  28.7851

     occupation numbers 
     1.0000   1.0000   1.0000   1.0000   1.0000   1.0000   1.0000   1.0000
     1.0039   0.0000   0.0000   0.0000

          k =-0.2500 0.2500 0.1250 (  1138 PWs)   bands (ev):

   -70.6037 -36.6635 -36.5190 -36.4751  11.6114  14.6000  14.7883  16.2253
    16.3910  16.7455  32.9157  35.9864

     occupation numbers 
     1.0000   1.0000   1.0000   1.0000   1.0000   1.0000   1.0000   1.0000
     1.0000   1.0000   0.0000   0.0000

          k =-0.2500 0.1875 0.1875 (  1138 PWs)   bands (ev):

   -70.6054 -36.6560 -36.5049 -36.4847  11.5220  14.6525  14.6639  16.2323
    16.3780  16.7570  34.2114  34.9710

     occupation numbers 
     1.0000   1.0000   1.0000   1.0000   1.0000   1.0000   1.0000   1.0000
     1.0000   1.0000   0.0000   0.0000

          k =-0.2500 0.7500-0.3750 (  1148 PWs)   bands (ev):

   -70.5624 -36.7562 -36.6765 -36.5130  13.8622  14.1010  14.6294  16.4649
[...]

     occupation numbers 
     1.0000   1.0000   1.0000   1.0000   1.0000   1.0000   1.0812   0.0000
     0.0000   0.0000   0.0000   0.0000

          k =-0.0625-0.1875 0.6250 (  1150 PWs)   bands (ev):

   -67.8327 -34.1232 -33.9877 -33.9057  14.7818  15.9353  17.0892  18.2416
    19.5529  21.5151  28.2258  31.7097

     occupation numbers 
     1.0000   1.0000   1.0000   1.0000   1.0000   1.0000   1.0133   0.0000
     0.0000   0.0000   0.0000   0.0000

          k =-0.0625 0.7500-0.3125 (  1156 PWs)   bands (ev):

   -67.8279 -34.1455 -33.9996 -33.9044  15.0089  15.8624  16.9964  18.3145
    19.8060  22.6781  26.3384  31.2993

     occupation numbers 
     1.0000   1.0000   1.0000   1.0000   1.0000   1.0000   1.0009   0.0000
     0.0000   0.0000   0.0000   0.0000

          k =-0.1250-0.1250 0.6250 (  1158 PWs)   bands (ev):

   -67.8321 -34.1069 -34.0021 -33.9114  14.8172  15.8595  17.1501  18.3136
    19.3764  21.5287  29.6606  30.0591

     occupation numbers 
     1.0000   1.0000   1.0000   1.0000   1.0000   1.0000   1.0432   0.0000
     0.0000   0.0000   0.0000   0.0000

          k =-0.1250 0.8125-0.3125 (  1152 PWs)   bands (ev):

   -67.8256 -34.1220 -34.0298 -33.9115  15.1887  15.6570  16.9803  18.5796
    19.5337  22.9031  27.5015  29.3394

     occupation numbers 
     1.0000   1.0000   1.0000   1.0000   1.0000   1.0000   1.0005   0.0000
     0.0000   0.0000   0.0000   0.0000

          k =-0.1250 0.7500-0.2500 (  1157 PWs)   bands (ev):

   -67.8234 -34.1270 -34.0402 -33.9112  15.2859  15.6374  16.8883  18.6700
    19.6063  23.9825  26.1166  29.1309

     occupation numbers 
     1.0000   1.0000   1.0000   1.0000   1.0000   1.0000   1.0000   0.0000
     0.0000   0.0000   0.0000   0.0000

          k =-0.1875 0.8125-0.2500 (  1154 PWs)   bands (ev):

   -67.8218 -34.1069 -34.0692 -33.9125  15.4592  15.5050  16.7949  18.9830
    19.3786  24.5838  26.5714  27.6985

     occupation numbers 
     1.0000   1.0000   1.0000   1.0000   1.0000   1.0000   1.0000   0.0000
     0.0000   0.0000   0.0000   0.0000

          k = 0.6250-0.6250 0.3750 (  1157 PWs)   bands (ev):

   -67.8496 -34.1075 -33.9094 -33.9094  15.1463  15.7402  15.7402  19.3435
    19.3435  22.1963  29.5870  29.5870

     occupation numbers 
     1.0000   1.0000   1.0000   1.0000   1.0000   1.0000   1.0000   0.0000
     0.0000   0.0000   0.0000   0.0000

          k = 0.5625-0.5625 0.3750 (  1155 PWs)   bands (ev):

   -67.8458 -34.0861 -33.9563 -33.9132  15.4340  15.6729  15.8663  19.3651
    19.4222  23.4686  27.5672  29.1743

     occupation numbers 
     1.0000   1.0000   1.0000   1.0000   1.0000   1.0000   1.0000   0.0000
     0.0000   0.0000   0.0000   0.0000

          k = 0.5000-0.5000 0.3750 (  1154 PWs)   bands (ev):

   -67.8445 -34.0693 -33.9821 -33.9146  15.4259  15.6517  16.0290  19.3753
    19.4470  24.4822  26.2312  29.0353

     occupation numbers 
     1.0000   1.0000   1.0000   1.0000   1.0000   1.0000   1.0000   0.0000
     0.0000   0.0000   0.0000   0.0000

          k = 0.5000-0.5625 0.4375 (  1150 PWs)   bands (ev):

   -67.8442 -34.0450 -33.9891 -33.9356  15.5659  15.7236  15.8353  19.4199
    19.4413  25.0032  26.8204  27.7664

     occupation numbers 
     1.0000   1.0000   1.0000   1.0000   1.0000   1.0000   1.0000   0.0000
     0.0000   0.0000   0.0000   0.0000

          k = 0.0000 0.0000 0.5000 (  1136 PWs)   bands (ev):

   -67.8536 -34.0034 -33.9344 -33.9344  13.4240  16.8144  17.5207  17.5207
    18.4271  20.0036  34.6092  34.6093

     occupation numbers 
     1.0000   1.0000   1.0000   1.0000   1.0000   1.0000   0.0683   0.0683
     0.0000   0.0000   0.0000   0.0000

          k = 0.0000-0.0625 0.5625 (  1156 PWs)   bands (ev):

   -67.8415 -34.0465 -33.9621 -33.9464  14.1196  16.3295  17.5909  17.8107
    18.8277  20.4061  32.2024  33.3281

     occupation numbers 
     1.0000   1.0000   1.0000   1.0000   1.0000   1.0000   0.0110   0.0000
     0.0000   0.0000   0.0000   0.0000

          k = 0.0000-0.1250 0.6250 (  1153 PWs)   bands (ev):

   -67.8311 -34.0948 -33.9855 -33.9444  14.6694  15.9180  17.5394  18.0753
    19.3406  21.2065  29.6340  32.2869

     occupation numbers 
     1.0000   1.0000   1.0000   1.0000   1.0000   1.0000   0.0441   0.0000
     0.0000   0.0000   0.0000   0.0000

          k = 0.0000-0.1875 0.6875 (  1151 PWs)   bands (ev):

   -67.8241 -34.1288 -34.0011 -33.9413  14.9957  15.6710  17.4835  18.1881
    19.7471  22.4483  27.3400  31.5875

     occupation numbers 
     1.0000   1.0000   1.0000   1.0000   1.0000   1.0000   0.1470   0.0000
     0.0000   0.0000   0.0000   0.0000

          k = 0.0000 0.7500-0.2500 (  1152 PWs)   bands (ev):

   -67.8217 -34.1408 -34.0065 -33.9400  15.0904  15.6025  17.4618  18.2093
    19.9020  23.3970  26.0518  31.3379

     occupation numbers 
     1.0000   1.0000   1.0000   1.0000   1.0000   1.0000   0.2158   0.0000
     0.0000   0.0000   0.0000   0.0000

          k =-0.0625-0.0625 0.6250 (  1156 PWs)   bands (ev):

   -67.8305 -34.0754 -33.9935 -33.9587  14.6237  15.9231  17.6975  18.1051
    19.1530  21.1192  31.0794  31.2801

     occupation numbers 
     1.0000   1.0000   1.0000   1.0000   1.0000   1.0000   0.0003   0.0000
     0.0000   0.0000   0.0000   0.0000

          k =-0.0625-0.1250 0.6875 (  1151 PWs)   bands (ev):

   -67.8221 -34.1057 -34.0187 -33.9585  14.9687  15.5928  17.6412  18.3982
    19.5096  22.3067  28.7492  30.3812

     occupation numbers 
     1.0000   1.0000   1.0000   1.0000   1.0000   1.0000   0.0022   0.0000
     0.0000   0.0000   0.0000   0.0000

          k =-0.0625 0.8125-0.2500 (  1153 PWs)   bands (ev):

   -67.8175 -34.1239 -34.0319 -33.9569  15.1452  15.4133  17.5831  18.5284
    19.7547  23.7793  26.6662  29.9234

     occupation numbers 
     1.0000   1.0000   1.0000   1.0000   1.0000   1.0000   0.0138   0.0000
     0.0000   0.0000   0.0000   0.0000

          k =-0.1250 0.8750-0.2500 (  1154 PWs)   bands (ev):

   -67.8161 -34.1086 -34.0533 -33.9597  15.1556  15.3573  17.5541  18.8488
    19.5597  23.8257  27.8719  28.4063

     occupation numbers 
     1.0000   1.0000   1.0000   1.0000   1.0000   1.0000   0.0304   0.0000
     0.0000   0.0000   0.0000   0.0000

          k =-0.1250 0.8125-0.1875 (  1160 PWs)   bands (ev):

   -67.8140 -34.1060 -34.0699 -33.9593  15.2295  15.2650  17.5067  19.0596
    19.5442  25.2250  26.3824  28.0233

     occupation numbers 
     1.0000   1.0000   1.0000   1.0000   1.0000   1.0000   0.0926   0.0000
     0.0000   0.0000   0.0000   0.0000

          k = 0.5000-0.5000 0.5000 (  1160 PWs)   bands (ev):

   -67.8438 -33.9913 -33.9913 -33.9913  15.7206  15.7206  15.7206  19.4537
    19.4537  26.6680  26.6680  26.6680

     occupation numbers 
     1.0000   1.0000   1.0000   1.0000   1.0000   1.0000   1.0000   0.0000
     0.0000   0.0000   0.0000   0.0000

          k = 0.0000 0.0000 0.6250 (  1152 PWs)   bands (ev):

   -67.8299 -34.0492 -33.9905 -33.9905  14.5529  15.9530  18.0250  18.0250
    18.9288  20.9921  31.9651  31.9651

     occupation numbers 
     1.0000   1.0000   1.0000   1.0000   1.0000   1.0000   0.0000   0.0000
     0.0000   0.0000   0.0000   0.0000

          k = 0.0000-0.0625 0.6875 (  1149 PWs)   bands (ev):

   -67.8202 -34.0791 -34.0145 -34.0000  14.8339  15.5759  18.1872  18.3212
    19.2947  21.9785  30.0480  30.8514

     occupation numbers 
     1.0000   1.0000   1.0000   1.0000   1.0000   1.0000   0.0000   0.0000
     0.0000   0.0000   0.0000   0.0000

          k = 0.0000-0.1250 0.7500 (  1152 PWs)   bands (ev):

   -67.8136 -34.1082 -34.0305 -33.9970  14.9984  15.3013  18.2012  18.4979
    19.6865  23.4116  27.8184  30.0962

     occupation numbers 
     1.0000   1.0000   1.0000   1.0000   1.0000   1.0000   0.0000   0.0000
     0.0000   0.0000   0.0000   0.0000

          k = 0.0000 0.8125-0.1875 (  1156 PWs)   bands (ev):

   -67.8113 -34.1190 -34.0361 -33.9953  15.0802  15.1751  18.1967  18.5490
    19.8466  24.6607  26.2971  29.8244

     occupation numbers 
     1.0000   1.0000   1.0000   1.0000   1.0000   1.0000   0.0000   0.0000
     0.0000   0.0000   0.0000   0.0000

          k =-0.0625-0.0625 0.7500 (  1154 PWs)   bands (ev):

   -67.8123 -34.0931 -34.0428 -34.0079  14.9351  15.2734  18.2935  18.7546
    19.5258  23.2567  29.0717  29.2378

     occupation numbers 
     1.0000   1.0000   1.0000   1.0000   1.0000   1.0000   0.0000   0.0000
     0.0000   0.0000   0.0000   0.0000

          k =-0.0625 0.8750-0.1875 (  1155 PWs)   bands (ev):

   -67.8080 -34.1043 -34.0598 -34.0067  14.9956  15.0839  18.2908  19.0169
    19.7086  24.8704  27.1364  28.6620

     occupation numbers 
     1.0000   1.0000   1.0000   1.0000   1.0000   1.0000   0.0000   0.0000
     0.0000   0.0000   0.0000   0.0000

          k =-0.1250 0.8750-0.1250 (  1156 PWs)   bands (ev):

   -67.8060 -34.0881 -34.0881 -34.0068  14.9988  14.9988  18.2799  19.4848
    19.4848  26.4571  26.4571  27.4162

     occupation numbers 
     1.0000   1.0000   1.0000   1.0000   1.0000   1.0000   0.0000   0.0000
     0.0000   0.0000   0.0000   0.0000

          k = 0.0000 0.0000 0.7500 (  1144 PWs)   bands (ev):

   -67.8109 -34.0733 -34.0390 -34.0390  14.8558  15.2465  18.7207  18.7207
    19.3616  23.0427  29.6632  29.6632

     occupation numbers 
     1.0000   1.0000   1.0000   1.0000   1.0000   1.0000   0.0000   0.0000
     0.0000   0.0000   0.0000   0.0000

          k = 0.0000-0.0625 0.8125 (  1155 PWs)   bands (ev):

   -67.8047 -34.0908 -34.0554 -34.0437  14.8471  15.0024  18.9113  19.0120
    19.6407  24.4729  28.1803  28.8441

     occupation numbers 
     1.0000   1.0000   1.0000   1.0000   1.0000   1.0000   0.0000   0.0000
     0.0000   0.0000   0.0000   0.0000

          k = 0.0000 0.8750-0.1250 (  1154 PWs)   bands (ev):

   -67.8026 -34.1004 -34.0611 -34.0418  14.8707  14.8848  18.9351  19.1103
    19.8000  25.8760  26.6721  28.5453

     occupation numbers 
     1.0000   1.0000   1.0000   1.0000   1.0000   1.0000   0.0000   0.0000
     0.0000   0.0000   0.0000   0.0000

          k =-0.0625 0.9375-0.1250 (  1156 PWs)   bands (ev):

   -67.8006 -34.0912 -34.0762 -34.0474  14.7989  14.8399  19.0104  19.4429
    19.7064  25.9477  27.5039  27.7263

     occupation numbers 
     1.0000   1.0000   1.0000   1.0000   1.0000   1.0000   0.0000   0.0000
     0.0000   0.0000   0.0000   0.0000

          k = 0.0000 0.0000 0.8750 (  1152 PWs)   bands (ev):

   -67.7988 -34.0820 -34.0720 -34.0720  14.7238  14.7872  19.4279  19.4279
    19.6545  25.6934  27.9650  27.9650

     occupation numbers 
     1.0000   1.0000   1.0000   1.0000   1.0000   1.0000   0.0000   0.0000
     0.0000   0.0000   0.0000   0.0000

          k = 0.0000 0.9375-0.0625 (  1154 PWs)   bands (ev):

   -67.7967 -34.0880 -34.0778 -34.0728  14.6888  14.6997  19.5239  19.5803
    19.7689  26.8752  27.0941  27.6391

     occupation numbers 
     1.0000   1.0000   1.0000   1.0000   1.0000   1.0000   0.0000   0.0000
     0.0000   0.0000   0.0000   0.0000

          k = 0.0000 0.0000-1.0000 (  1144 PWs)   bands (ev):

   -67.7946 -34.0836 -34.0836 -34.0836  14.6284  14.6284  19.7580  19.7580
    19.7580  27.3004  27.3004  27.3004

     occupation numbers 
     1.0000   1.0000   1.0000   1.0000   1.0000   1.0000   0.0000   0.0000
     0.0000   0.0000   0.0000   0.0000

     the Fermi energy is    17.4193 ev

!    total energy              =    -329.27087237 Ry
     total all-electron energy =     -2545.567408 Ry
     estimated scf accuracy    <          9.6E-11 Ry
     smearing contrib. (-TS)   =       0.00006282 Ry
     internal energy E=F+TS    =    -329.27093519 Ry

     The total energy is F=E-TS. E is the sum of the following terms:
     one-electron contribution =    -113.05921304 Ry
     hartree contribution      =      66.63861763 Ry
     xc contribution           =     -34.80851503 Ry
     ewald contribution        =    -171.88999319 Ry
     one-center paw contrib.   =     -76.15183157 Ry
      -> PAW hartree energy AE =     207.89718514 Ry
      -> PAW hartree energy PS =    -207.03090077 Ry
      -> PAW xc energy AE      =    -111.29641030 Ry
      -> PAW xc energy PS      =      34.27829436 Ry
      -> total E_H with PAW    =      67.50490200 Ry
      -> total E_XC with PAW   =    -111.82663097 Ry

     total magnetization       =     2.25 Bohr mag/cell
     absolute magnetization    =     2.37 Bohr mag/cell

     convergence has been achieved in  16 iterations

     negative rho (up, down):  0.000E+00 2.983E-05

     Forces acting on atoms (cartesian axes, Ry/au):

     atom    1 type  1   force =     0.00000000    0.00000000    0.00000000
     The non-local contrib.  to forces
     atom    1 type  1   force =    -0.00000000    0.00000000   -0.00000000
     The ionic contribution  to forces
     atom    1 type  1   force =    -0.00000000   -0.00000000   -0.00000000
     The local contribution  to forces
     atom    1 type  1   force =    -0.00000000   -0.00000000    0.00000000
     The core correction contribution to forces
     atom    1 type  1   force =     0.00000000   -0.00000000    0.00000000
     The Hubbard contrib.    to forces
     atom    1 type  1   force =     0.00000000    0.00000000    0.00000000
     The SCF correction term to forces
     atom    1 type  1   force =     0.00000000   -0.00000000    0.00000000

     Total force =     0.000000     Total SCF correction =     0.000000


     Computing stress (Cartesian axis) and pressure


     negative rho (up, down):  0.000E+00 2.983E-05
          total   stress  (Ry/bohr**3)                   (kbar)     P=      -62.16
  -0.00042254   0.00000000   0.00000000          -62.16        0.00        0.00
   0.00000000  -0.00042254   0.00000000            0.00      -62.16        0.00
  -0.00000000   0.00000000  -0.00042254           -0.00        0.00      -62.16

     kinetic stress (kbar)  78585.56     -0.00      0.00
                               -0.00  78585.56     -0.00
                                0.00     -0.00  78585.56

     local   stress (kbar)  66182.21     -0.00     -0.00
                               -0.00  66182.21     -0.00
                               -0.00     -0.00  66182.21

     nonloc. stress (kbar) -61385.69      0.00     -0.00
                                0.00 -61385.69      0.00
                               -0.00      0.00 -61385.69

     hartree stress (kbar)  41045.40      0.00      0.00
                                0.00  41045.40     -0.00
                                0.00     -0.00  41045.40

     exc-cor stress (kbar)  -2499.77      0.00     -0.00
                                0.00  -2499.77     -0.00
                               -0.00     -0.00  -2499.77

     corecor stress (kbar) -16115.91     -0.00     -0.00
                               -0.00 -16115.91     -0.00
                               -0.00     -0.00 -16115.91

     ewald   stress (kbar)-105873.96      0.00      0.00
                                0.00-105873.96      0.00
                                0.00      0.00-105873.96

     hubbard stress (kbar)      0.00      0.00      0.00
                                0.00      0.00      0.00
                                0.00      0.00      0.00

     DFT-D   stress (kbar)      0.00      0.00      0.00
                                0.00      0.00      0.00
                                0.00      0.00      0.00

     XDM     stress (kbar)      0.00      0.00      0.00
                                0.00      0.00      0.00
                                0.00      0.00      0.00

     dft-nl  stress (kbar)      0.00      0.00      0.00
                                0.00      0.00      0.00
                                0.00      0.00      0.00

     TS-vdW  stress (kbar)      0.00      0.00      0.00
                                0.00      0.00      0.00
                                0.00      0.00      0.00

     MDB     stress (kbar)      0.00      0.00      0.00
                                0.00      0.00      0.00
                                0.00      0.00      0.00

     3D-RISM stress (kbar)      0.00      0.00      0.00
                                0.00      0.00      0.00
                                0.00      0.00      0.00


     Writing all to output data dir ./tmp/fe_bcc_fm_paw.save/ :
     XML data file, charge density, pseudopotentials, collected wavefunctions

     init_run     :      0.57s CPU      0.80s WALL (       1 calls)
     electrons    :      3.95s CPU      6.12s WALL (       1 calls)
     forces       :      0.04s CPU      0.04s WALL (       1 calls)
     stress       :      0.07s CPU      0.08s WALL (       1 calls)

     Called by init_run:
     wfcinit      :      0.03s CPU      0.05s WALL (       1 calls)
     wfcinit:atom :      0.00s CPU      0.00s WALL (      19 calls)
     wfcinit:wfcr :      0.02s CPU      0.03s WALL (      19 calls)
     potinit      :      0.27s CPU      0.44s WALL (       1 calls)
     hinit0       :      0.23s CPU      0.26s WALL (       1 calls)

     Called by electrons:
     c_bands      :      1.37s CPU      1.51s WALL (      16 calls)
     sum_band     :      0.33s CPU      0.36s WALL (      16 calls)
     v_of_rho     :      0.42s CPU      0.51s WALL (      17 calls)
     v_h          :      0.01s CPU      0.01s WALL (      17 calls)
     v_xc         :      0.46s CPU      0.55s WALL (      19 calls)
     newd         :      0.04s CPU      0.05s WALL (      17 calls)
     PAW_pot      :      1.78s CPU      3.64s WALL (      17 calls)
     mix_rho      :      0.02s CPU      0.03s WALL (      16 calls)

     Called by c_bands:
     init_us_2    :      0.02s CPU      0.02s WALL (     665 calls)
     cegterg      :      1.15s CPU      1.26s WALL (     304 calls)

     Called by sum_band:
     sum_band:wei :      0.01s CPU      0.02s WALL (      16 calls)
     sum_band:loo :      0.22s CPU      0.23s WALL (      16 calls)
     sum_band:buf :      0.00s CPU      0.00s WALL (     304 calls)
     sum_band:ini :      0.01s CPU      0.01s WALL (     304 calls)
     sum_band:cal :      0.01s CPU      0.01s WALL (     304 calls)
     sum_band:bec :      0.00s CPU      0.00s WALL (     304 calls)
     addusdens    :      0.04s CPU      0.04s WALL (      16 calls)
                                        0.00s GPU  (      16 calls)
     addusd:skk   :      0.00s CPU      0.00s WALL (      16 calls)
                                        0.00s GPU  (      16 calls)

     Called by *egterg:
     cdiaghg      :      0.14s CPU      0.15s WALL (    1056 calls)
     cegterg:over :      0.04s CPU      0.04s WALL (     752 calls)
     cegterg:upda :      0.01s CPU      0.01s WALL (     752 calls)
     cegterg:last :      0.02s CPU      0.02s WALL (     583 calls)
     h_psi        :      0.92s CPU      1.02s WALL (    1075 calls)
     s_psi        :      0.01s CPU      0.01s WALL (    1075 calls)
     g_psi        :      0.00s CPU      0.00s WALL (     752 calls)

     Called by h_psi:
     h_psi:calbec :      0.03s CPU      0.04s WALL (    1075 calls)
     vloc_psi     :      0.88s CPU      0.96s WALL (    1075 calls)
     add_vuspsi   :      0.01s CPU      0.01s WALL (    1075 calls)

     General routines
     calbec       :      0.05s CPU      0.05s WALL (    1474 calls)
     fft          :      0.32s CPU      0.40s WALL (     463 calls)
     ffts         :      0.15s CPU      0.15s WALL (      66 calls)
     fftw         :      0.91s CPU      0.99s WALL (   21684 calls)
     interpolate  :      0.17s CPU      0.18s WALL (      34 calls)

     Parallel routines

     PAW routines
     PAW_pot      :      1.78s CPU      3.64s WALL (      17 calls)
     PAW_symme    :      0.01s CPU      0.02s WALL (      33 calls)

     PWSCF        :      4.79s CPU      8.53s WALL


   This run was terminated on:   6:49:29  13May2025            

=------------------------------------------------------------------------------=
   JOB DONE.
=------------------------------------------------------------------------------=
