
     Program PWSCF v.7.3.1 starts on 13May2025 at  6:49:47 

     This program is part of the open-source Quantum ESPRESSO suite
     for quantum simulation of materials; please cite
         "P. Giannozzi et al., J. Phys.:Condens. Matter 21 395502 (2009);
         "P. Giannozzi et al., J. Phys.:Condens. Matter 29 465901 (2017);
         "P. Giannozzi et al., J. Chem. Phys. 152 154105 (2020);
          URL http://www.quantum-espresso.org", 
     in publications or presentations arising from this work. More details at
     http://www.quantum-espresso.org/quote

     Parallel version (MPI & OpenMP), running on     128 processor cores
     Number of MPI processes:               128
     Threads/MPI process:                     1

     MPI processes distributed on     1 nodes
     452973 MiB available memory on the printing compute node when the environment starts

     Waiting for input...
     Reading input from standard input

     Current dimensions of program PWSCF are:
     Max number of different atomic species (ntypx) = 10
     Max number of k-points (npk) =  40000
     Max angular momentum in pseudopotentials (lmaxx) =  4
     file Fe.pbe-spn-kjpaw_psl.0.2.1.UPF: wavefunction(s)  3D renormalized

     K-points division:     npool     =      16
     R & G space division:  proc/nbgrp/npool/nimage =       8
     Subspace diagonalization in iterative solution of the eigenvalue problem:
     a serial algorithm will be used


     Parallelization info
     --------------------
     sticks:   dense  smooth     PW     G-vecs:    dense   smooth      PW
     Min         222      74     22                 5949     1147     199
     Max         223      75     23                 5951     1149     201
     Sum        1781     599    181                47597     9189    1601

     Using Slab Decomposition



     bravais-lattice index     =            3
     lattice parameter (alat)  =       5.4200  a.u.
     unit-cell volume          =      79.6100 (a.u.)^3
     number of atoms/cell      =            1
     number of atomic types    =            1
     number of electrons       =        16.00
     number of Kohn-Sham states=           12
     kinetic-energy cutoff     =      90.0000  Ry
     charge density cutoff     =    1080.0000  Ry
     scf convergence threshold =      1.0E-10
     mixing beta               =       0.2000
     number of iterations used =            8  plain     mixing
     Exchange-correlation= SLA  PW   PBX  PBC
                           (   1   4   3   4   0   0   0)

     celldm(1)=   5.420000  celldm(2)=   0.000000  celldm(3)=   0.000000
     celldm(4)=   0.000000  celldm(5)=   0.000000  celldm(6)=   0.000000

     crystal axes: (cart. coord. in units of alat)
               a(1) = (   0.500000   0.500000   0.500000 )  
               a(2) = (  -0.500000   0.500000   0.500000 )  
               a(3) = (  -0.500000  -0.500000   0.500000 )  

     reciprocal axes: (cart. coord. in units 2 pi/alat)
               b(1) = (  1.000000  0.000000  1.000000 )  
               b(2) = ( -1.000000  1.000000  0.000000 )  
               b(3) = (  0.000000 -1.000000  1.000000 )  


     PseudoPot. # 1 for Fe read from file:
     ../../../pseudopotentials/Fe.pbe-spn-kjpaw_psl.0.2.1.UPF
     MD5 check sum: 4338034a7fd945be4bb7db5fd3b2d142
     Pseudo is Projector augmented-wave + core cor, Zval = 16.0
     Generated using "atomic" code by A. Dal Corso  v.5.0.2 svn rev. 9415
     Shape of augmentation charge: PSQ
     Using radial grid of 1191 points,  6 beta functions with: 
                l(1) =   0
                l(2) =   0
                l(3) =   1
                l(4) =   1
                l(5) =   2
                l(6) =   2
     Q(r) pseudized with 0 coefficients 


     atomic species   valence    mass     pseudopotential
     Fe               16.00    55.84500     Fe( 1.00)

     48 Sym. Ops., with inversion, found


                                    s                        frac. trans.

      isym =  1     identity                                     

 cryst.   s( 1) = (     1          0          0      )
                  (     0          1          0      )
                  (     0          0          1      )

 cart.    s( 1) = (  1.0000000  0.0000000  0.0000000 )
                  (  0.0000000  1.0000000  0.0000000 )
                  (  0.0000000  0.0000000  1.0000000 )


      isym =  2     180 deg rotation - cart. axis [0,0,1]        

 cryst.   s( 2) = (     0          0          1      )
                  (     1         -1          1      )
                  (     1          0          0      )

 cart.    s( 2) = ( -1.0000000  0.0000000  0.0000000 )
                  (  0.0000000 -1.0000000  0.0000000 )
                  (  0.0000000  0.0000000  1.0000000 )


      isym =  3     180 deg rotation - cart. axis [0,1,0]        

 cryst.   s( 3) = (    -1          1         -1      )
                  (     0          0         -1      )
                  (     0         -1          0      )

 cart.    s( 3) = ( -1.0000000  0.0000000  0.0000000 )
                  (  0.0000000  1.0000000  0.0000000 )
                  (  0.0000000  0.0000000 -1.0000000 )


      isym =  4     180 deg rotation - cart. axis [1,0,0]        

 cryst.   s( 4) = (     0         -1          0      )
                  (    -1          0          0      )
                  (    -1          1         -1      )

 cart.    s( 4) = (  1.0000000  0.0000000  0.0000000 )
                  (  0.0000000 -1.0000000  0.0000000 )
                  (  0.0000000  0.0000000 -1.0000000 )


      isym =  5     180 deg rotation - cart. axis [1,1,0]        

 cryst.   s( 5) = (     0          0         -1      )
                  (     0         -1          0      )
                  (    -1          0          0      )

 cart.    s( 5) = (  0.0000000  1.0000000  0.0000000 )
                  (  1.0000000  0.0000000  0.0000000 )
                  (  0.0000000  0.0000000 -1.0000000 )


      isym =  6     180 deg rotation - cart. axis [1,-1,0]       

 cryst.   s( 6) = (    -1          0          0      )
                  (    -1          1         -1      )
                  (     0          0         -1      )

 cart.    s( 6) = (  0.0000000 -1.0000000  0.0000000 )
                  ( -1.0000000  0.0000000  0.0000000 )
                  (  0.0000000  0.0000000 -1.0000000 )


      isym =  7      90 deg rotation - cart. axis [0,0,-1]       

 cryst.   s( 7) = (     1         -1          1      )
                  (     1          0          0      )
                  (     0          1          0      )

 cart.    s( 7) = (  0.0000000  1.0000000  0.0000000 )
                  ( -1.0000000  0.0000000  0.0000000 )
                  (  0.0000000  0.0000000  1.0000000 )


      isym =  8      90 deg rotation - cart. axis [0,0,1]        

 cryst.   s( 8) = (     0          1          0      )
                  (     0          0          1      )
                  (     1         -1          1      )

 cart.    s( 8) = (  0.0000000 -1.0000000  0.0000000 )
                  (  1.0000000  0.0000000  0.0000000 )
                  (  0.0000000  0.0000000  1.0000000 )


      isym =  9     180 deg rotation - cart. axis [1,0,1]        

 cryst.   s( 9) = (     1         -1          1      )
                  (     0         -1          0      )
                  (     0          0         -1      )

 cart.    s( 9) = (  0.0000000  0.0000000  1.0000000 )
                  (  0.0000000 -1.0000000  0.0000000 )
                  (  1.0000000  0.0000000  0.0000000 )


      isym = 10     180 deg rotation - cart. axis [-1,0,1]       

 cryst.   s(10) = (    -1          0          0      )
                  (     0          0          1      )
                  (     0          1          0      )

 cart.    s(10) = (  0.0000000  0.0000000 -1.0000000 )
                  (  0.0000000 -1.0000000  0.0000000 )
                  ( -1.0000000  0.0000000  0.0000000 )


      isym = 11      90 deg rotation - cart. axis [0,1,0]        

 cryst.   s(11) = (     0          0         -1      )
                  (     1          0          0      )
                  (     1         -1          1      )

 cart.    s(11) = (  0.0000000  0.0000000  1.0000000 )
                  (  0.0000000  1.0000000  0.0000000 )
                  ( -1.0000000  0.0000000  0.0000000 )


      isym = 12      90 deg rotation - cart. axis [0,-1,0]       

 cryst.   s(12) = (     0          1          0      )
                  (    -1          1         -1      )
                  (    -1          0          0      )

 cart.    s(12) = (  0.0000000  0.0000000 -1.0000000 )
                  (  0.0000000  1.0000000  0.0000000 )
                  (  1.0000000  0.0000000  0.0000000 )


      isym = 13     180 deg rotation - cart. axis [0,1,1]        

 cryst.   s(13) = (     0          1          0      )
                  (     1          0          0      )
                  (     0          0         -1      )

 cart.    s(13) = ( -1.0000000  0.0000000  0.0000000 )
                  (  0.0000000  0.0000000  1.0000000 )
                  (  0.0000000  1.0000000  0.0000000 )


      isym = 14     180 deg rotation - cart. axis [0,1,-1]       

 cryst.   s(14) = (    -1          0          0      )
                  (     0         -1          0      )
                  (     1         -1          1      )

 cart.    s(14) = ( -1.0000000  0.0000000  0.0000000 )
                  (  0.0000000  0.0000000 -1.0000000 )
                  (  0.0000000 -1.0000000  0.0000000 )


      isym = 15      90 deg rotation - cart. axis [-1,0,0]       

 cryst.   s(15) = (     0          0         -1      )
                  (    -1          1         -1      )
                  (     0          1          0      )

 cart.    s(15) = (  1.0000000  0.0000000  0.0000000 )
                  (  0.0000000  0.0000000  1.0000000 )
                  (  0.0000000 -1.0000000  0.0000000 )


      isym = 16      90 deg rotation - cart. axis [1,0,0]        

 cryst.   s(16) = (     1         -1          1      )
                  (     0          0          1      )
                  (    -1          0          0      )

 cart.    s(16) = (  1.0000000  0.0000000  0.0000000 )
                  (  0.0000000  0.0000000 -1.0000000 )
                  (  0.0000000  1.0000000  0.0000000 )


      isym = 17     120 deg rotation - cart. axis [-1,-1,-1]     

 cryst.   s(17) = (     1          0          0      )
                  (     0          0         -1      )
                  (    -1          1         -1      )

 cart.    s(17) = (  0.0000000  1.0000000  0.0000000 )
                  (  0.0000000  0.0000000  1.0000000 )
                  (  1.0000000  0.0000000  0.0000000 )


      isym = 18     120 deg rotation - cart. axis [-1,1,1]       

 cryst.   s(18) = (    -1          1         -1      )
                  (     0          1          0      )
                  (     1          0          0      )

 cart.    s(18) = (  0.0000000 -1.0000000  0.0000000 )
                  (  0.0000000  0.0000000  1.0000000 )
                  ( -1.0000000  0.0000000  0.0000000 )


      isym = 19     120 deg rotation - cart. axis [1,1,-1]       

 cryst.   s(19) = (     0         -1          0      )
                  (     1         -1          1      )
                  (     0          0          1      )

 cart.    s(19) = (  0.0000000  1.0000000  0.0000000 )
                  (  0.0000000  0.0000000 -1.0000000 )
                  ( -1.0000000  0.0000000  0.0000000 )


      isym = 20     120 deg rotation - cart. axis [1,-1,1]       

 cryst.   s(20) = (     0          0          1      )
                  (    -1          0          0      )
                  (     0         -1          0      )

 cart.    s(20) = (  0.0000000 -1.0000000  0.0000000 )
                  (  0.0000000  0.0000000 -1.0000000 )
                  (  1.0000000  0.0000000  0.0000000 )


      isym = 21     120 deg rotation - cart. axis [1,1,1]        

 cryst.   s(21) = (     1          0          0      )
                  (     1         -1          1      )
                  (     0         -1          0      )

 cart.    s(21) = (  0.0000000  0.0000000  1.0000000 )
                  (  1.0000000  0.0000000  0.0000000 )
                  (  0.0000000  1.0000000  0.0000000 )


      isym = 22     120 deg rotation - cart. axis [-1,1,-1]      

 cryst.   s(22) = (     0         -1          0      )
                  (     0          0         -1      )
                  (     1          0          0      )

 cart.    s(22) = (  0.0000000  0.0000000  1.0000000 )
                  ( -1.0000000  0.0000000  0.0000000 )
                  (  0.0000000 -1.0000000  0.0000000 )


      isym = 23     120 deg rotation - cart. axis [1,-1,-1]      

 cryst.   s(23) = (     0          0          1      )
                  (     0          1          0      )
                  (    -1          1         -1      )

 cart.    s(23) = (  0.0000000  0.0000000 -1.0000000 )
                  ( -1.0000000  0.0000000  0.0000000 )
                  (  0.0000000  1.0000000  0.0000000 )


      isym = 24     120 deg rotation - cart. axis [-1,-1,1]      

 cryst.   s(24) = (    -1          1         -1      )
                  (    -1          0          0      )
                  (     0          0          1      )

 cart.    s(24) = (  0.0000000  0.0000000 -1.0000000 )
                  (  1.0000000  0.0000000  0.0000000 )
                  (  0.0000000 -1.0000000  0.0000000 )


      isym = 25     inversion                                    

 cryst.   s(25) = (    -1          0          0      )
                  (     0         -1          0      )
                  (     0          0         -1      )

 cart.    s(25) = ( -1.0000000  0.0000000  0.0000000 )
                  (  0.0000000 -1.0000000  0.0000000 )
                  (  0.0000000  0.0000000 -1.0000000 )


      isym = 26     inv. 180 deg rotation - cart. axis [0,0,1]   

 cryst.   s(26) = (     0          0         -1      )
                  (    -1          1         -1      )
                  (    -1          0          0      )

 cart.    s(26) = (  1.0000000  0.0000000  0.0000000 )
                  (  0.0000000  1.0000000  0.0000000 )
                  (  0.0000000  0.0000000 -1.0000000 )


      isym = 27     inv. 180 deg rotation - cart. axis [0,1,0]   

 cryst.   s(27) = (     1         -1          1      )
                  (     0          0          1      )
                  (     0          1          0      )

 cart.    s(27) = (  1.0000000  0.0000000  0.0000000 )
                  (  0.0000000 -1.0000000  0.0000000 )
                  (  0.0000000  0.0000000  1.0000000 )


      isym = 28     inv. 180 deg rotation - cart. axis [1,0,0]   

 cryst.   s(28) = (     0          1          0      )
                  (     1          0          0      )
                  (     1         -1          1      )

 cart.    s(28) = ( -1.0000000  0.0000000  0.0000000 )
                  (  0.0000000  1.0000000  0.0000000 )
                  (  0.0000000  0.0000000  1.0000000 )


      isym = 29     inv. 180 deg rotation - cart. axis [1,1,0]   

 cryst.   s(29) = (     0          0          1      )
                  (     0          1          0      )
                  (     1          0          0      )

 cart.    s(29) = (  0.0000000 -1.0000000  0.0000000 )
                  ( -1.0000000  0.0000000  0.0000000 )
                  (  0.0000000  0.0000000  1.0000000 )


      isym = 30     inv. 180 deg rotation - cart. axis [1,-1,0]  

 cryst.   s(30) = (     1          0          0      )
                  (     1         -1          1      )
                  (     0          0          1      )

 cart.    s(30) = (  0.0000000  1.0000000  0.0000000 )
                  (  1.0000000  0.0000000  0.0000000 )
                  (  0.0000000  0.0000000  1.0000000 )


      isym = 31     inv.  90 deg rotation - cart. axis [0,0,-1]  

 cryst.   s(31) = (    -1          1         -1      )
                  (    -1          0          0      )
                  (     0         -1          0      )

 cart.    s(31) = (  0.0000000 -1.0000000  0.0000000 )
                  (  1.0000000  0.0000000  0.0000000 )
                  (  0.0000000  0.0000000 -1.0000000 )


      isym = 32     inv.  90 deg rotation - cart. axis [0,0,1]   

 cryst.   s(32) = (     0         -1          0      )
                  (     0          0         -1      )
                  (    -1          1         -1      )

 cart.    s(32) = (  0.0000000  1.0000000  0.0000000 )
                  ( -1.0000000  0.0000000  0.0000000 )
                  (  0.0000000  0.0000000 -1.0000000 )


      isym = 33     inv. 180 deg rotation - cart. axis [1,0,1]   

 cryst.   s(33) = (    -1          1         -1      )
                  (     0          1          0      )
                  (     0          0          1      )

 cart.    s(33) = (  0.0000000  0.0000000 -1.0000000 )
                  (  0.0000000  1.0000000  0.0000000 )
                  ( -1.0000000  0.0000000  0.0000000 )


      isym = 34     inv. 180 deg rotation - cart. axis [-1,0,1]  

 cryst.   s(34) = (     1          0          0      )
                  (     0          0         -1      )
                  (     0         -1          0      )

 cart.    s(34) = (  0.0000000  0.0000000  1.0000000 )
                  (  0.0000000  1.0000000  0.0000000 )
                  (  1.0000000  0.0000000  0.0000000 )


      isym = 35     inv.  90 deg rotation - cart. axis [0,1,0]   

 cryst.   s(35) = (     0          0          1      )
                  (    -1          0          0      )
                  (    -1          1         -1      )

 cart.    s(35) = (  0.0000000  0.0000000 -1.0000000 )
                  (  0.0000000 -1.0000000  0.0000000 )
                  (  1.0000000  0.0000000  0.0000000 )


      isym = 36     inv.  90 deg rotation - cart. axis [0,-1,0]  

 cryst.   s(36) = (     0         -1          0      )
                  (     1         -1          1      )
                  (     1          0          0      )

 cart.    s(36) = (  0.0000000  0.0000000  1.0000000 )
                  (  0.0000000 -1.0000000  0.0000000 )
                  ( -1.0000000  0.0000000  0.0000000 )


      isym = 37     inv. 180 deg rotation - cart. axis [0,1,1]   

 cryst.   s(37) = (     0         -1          0      )
                  (    -1          0          0      )
                  (     0          0          1      )

 cart.    s(37) = (  1.0000000  0.0000000  0.0000000 )
                  (  0.0000000  0.0000000 -1.0000000 )
                  (  0.0000000 -1.0000000  0.0000000 )


      isym = 38     inv. 180 deg rotation - cart. axis [0,1,-1]  

 cryst.   s(38) = (     1          0          0      )
                  (     0          1          0      )
                  (    -1          1         -1      )

 cart.    s(38) = (  1.0000000  0.0000000  0.0000000 )
                  (  0.0000000  0.0000000  1.0000000 )
                  (  0.0000000  1.0000000  0.0000000 )


      isym = 39     inv.  90 deg rotation - cart. axis [-1,0,0]  

 cryst.   s(39) = (     0          0          1      )
                  (     1         -1          1      )
                  (     0         -1          0      )

 cart.    s(39) = ( -1.0000000  0.0000000  0.0000000 )
                  (  0.0000000  0.0000000 -1.0000000 )
                  (  0.0000000  1.0000000  0.0000000 )


      isym = 40     inv.  90 deg rotation - cart. axis [1,0,0]   

 cryst.   s(40) = (    -1          1         -1      )
                  (     0          0         -1      )
                  (     1          0          0      )

 cart.    s(40) = ( -1.0000000  0.0000000  0.0000000 )
                  (  0.0000000  0.0000000  1.0000000 )
                  (  0.0000000 -1.0000000  0.0000000 )


      isym = 41     inv. 120 deg rotation - cart. axis [-1,-1,-1]

 cryst.   s(41) = (    -1          0          0      )
                  (     0          0          1      )
                  (     1         -1          1      )

 cart.    s(41) = (  0.0000000 -1.0000000  0.0000000 )
                  (  0.0000000  0.0000000 -1.0000000 )
                  ( -1.0000000  0.0000000  0.0000000 )


      isym = 42     inv. 120 deg rotation - cart. axis [-1,1,1]  

 cryst.   s(42) = (     1         -1          1      )
                  (     0         -1          0      )
                  (    -1          0          0      )

 cart.    s(42) = (  0.0000000  1.0000000  0.0000000 )
                  (  0.0000000  0.0000000 -1.0000000 )
                  (  1.0000000  0.0000000  0.0000000 )


      isym = 43     inv. 120 deg rotation - cart. axis [1,1,-1]  

 cryst.   s(43) = (     0          1          0      )
                  (    -1          1         -1      )
                  (     0          0         -1      )

 cart.    s(43) = (  0.0000000 -1.0000000  0.0000000 )
                  (  0.0000000  0.0000000  1.0000000 )
                  (  1.0000000  0.0000000  0.0000000 )


      isym = 44     inv. 120 deg rotation - cart. axis [1,-1,1]  

 cryst.   s(44) = (     0          0         -1      )
                  (     1          0          0      )
                  (     0          1          0      )

 cart.    s(44) = (  0.0000000  1.0000000  0.0000000 )
                  (  0.0000000  0.0000000  1.0000000 )
                  ( -1.0000000  0.0000000  0.0000000 )


      isym = 45     inv. 120 deg rotation - cart. axis [1,1,1]   

 cryst.   s(45) = (    -1          0          0      )
                  (    -1          1         -1      )
                  (     0          1          0      )

 cart.    s(45) = (  0.0000000  0.0000000 -1.0000000 )
                  ( -1.0000000  0.0000000  0.0000000 )
                  (  0.0000000 -1.0000000  0.0000000 )


      isym = 46     inv. 120 deg rotation - cart. axis [-1,1,-1] 

 cryst.   s(46) = (     0          1          0      )
                  (     0          0          1      )
                  (    -1          0          0      )

 cart.    s(46) = (  0.0000000  0.0000000 -1.0000000 )
                  (  1.0000000  0.0000000  0.0000000 )
                  (  0.0000000  1.0000000  0.0000000 )


      isym = 47     inv. 120 deg rotation - cart. axis [1,-1,-1] 

 cryst.   s(47) = (     0          0         -1      )
                  (     0         -1          0      )
                  (     1         -1          1      )

 cart.    s(47) = (  0.0000000  0.0000000  1.0000000 )
                  (  1.0000000  0.0000000  0.0000000 )
                  (  0.0000000 -1.0000000  0.0000000 )


      isym = 48     inv. 120 deg rotation - cart. axis [-1,-1,1] 

 cryst.   s(48) = (     1         -1          1      )
                  (     1          0          0      )
                  (     0          0         -1      )

 cart.    s(48) = (  0.0000000  0.0000000  1.0000000 )
                  ( -1.0000000  0.0000000  0.0000000 )
                  (  0.0000000  1.0000000  0.0000000 )


     point group O_h (m-3m) 
     there are 10 classes
     the character table:

       E     8C3   3C2   6C4   6C2'  i     8S6   3s_h  6S4   6s_d 
A_1g   1.00  1.00  1.00  1.00  1.00  1.00  1.00  1.00  1.00  1.00
A_2g   1.00  1.00  1.00 -1.00 -1.00  1.00  1.00  1.00 -1.00 -1.00
E_g    2.00 -1.00  2.00  0.00  0.00  2.00 -1.00  2.00  0.00  0.00
T_1g   3.00  0.00 -1.00  1.00 -1.00  3.00  0.00 -1.00  1.00 -1.00
T_2g   3.00  0.00 -1.00 -1.00  1.00  3.00  0.00 -1.00 -1.00  1.00
A_1u   1.00  1.00  1.00  1.00  1.00 -1.00 -1.00 -1.00 -1.00 -1.00
A_2u   1.00  1.00  1.00 -1.00 -1.00 -1.00 -1.00 -1.00  1.00  1.00
E_u    2.00 -1.00  2.00  0.00  0.00 -2.00  1.00 -2.00  0.00  0.00
T_1u   3.00  0.00 -1.00  1.00 -1.00 -3.00  0.00  1.00 -1.00  1.00
T_2u   3.00  0.00 -1.00 -1.00  1.00 -3.00  0.00  1.00  1.00 -1.00

     the symmetry operations in each class and the name of the first element:

     E        1
          identity                                               
     8C3     17   19   20   18   24   21   22   23
          120 deg rotation - cart. axis [-1,-1,-1]               
     3C2      2    4    3
          180 deg rotation - cart. axis [0,0,1]                  
     6C4      7    8   15   16   12   11
           90 deg rotation - cart. axis [0,0,-1]                 
     6C2'     5    6   14   13   10    9
          180 deg rotation - cart. axis [1,1,0]                  
     i       25
          inversion                                              
     8S6     41   43   44   42   48   45   46   47
          inv. 120 deg rotation - cart. axis [-1,-1,-1]          
     3s_h    26   28   27
          inv. 180 deg rotation - cart. axis [0,0,1]             
     6S4     31   32   39   40   36   35
          inv.  90 deg rotation - cart. axis [0,0,-1]            
     6s_d    29   30   38   37   34   33
          inv. 180 deg rotation - cart. axis [1,1,0]             

   Cartesian axes

     site n.     atom                  positions (alat units)
         1        Fe     tau(   1) = (   0.0000000   0.0000000   0.0000000  )

   Crystallographic axes

     site n.     atom                  positions (cryst. coord.)
         1        Fe     tau(   1) = (  0.0000000  0.0000000  0.0000000  )

     number of k points=   145  Marzari-Vanderbilt smearing, width (Ry)=  0.0100
                       cart. coord. in units 2pi/alat
        k(    1) = (   0.0000000   0.0000000   0.0000000), wk =   0.0004883
        k(    2) = (   0.0000000  -0.0625000   0.0625000), wk =   0.0058594
        k(    3) = (   0.0000000  -0.1250000   0.1250000), wk =   0.0058594
        k(    4) = (   0.0000000  -0.1875000   0.1875000), wk =   0.0058594
        k(    5) = (   0.0000000  -0.2500000   0.2500000), wk =   0.0058594
        k(    6) = (   0.0000000  -0.3125000   0.3125000), wk =   0.0058594
        k(    7) = (   0.0000000  -0.3750000   0.3750000), wk =   0.0058594
        k(    8) = (   0.0000000  -0.4375000   0.4375000), wk =   0.0058594
        k(    9) = (   0.0000000   0.5000000  -0.5000000), wk =   0.0029297
        k(   10) = (  -0.0625000  -0.0625000   0.1250000), wk =   0.0117188
        k(   11) = (  -0.0625000  -0.1250000   0.1875000), wk =   0.0234375
        k(   12) = (  -0.0625000  -0.1875000   0.2500000), wk =   0.0234375
        k(   13) = (  -0.0625000  -0.2500000   0.3125000), wk =   0.0234375
        k(   14) = (  -0.0625000  -0.3125000   0.3750000), wk =   0.0234375
        k(   15) = (  -0.0625000  -0.3750000   0.4375000), wk =   0.0234375
        k(   16) = (  -0.0625000   0.5625000  -0.5000000), wk =   0.0234375
        k(   17) = (  -0.1250000  -0.1250000   0.2500000), wk =   0.0117188
        k(   18) = (  -0.1250000  -0.1875000   0.3125000), wk =   0.0234375
        k(   19) = (  -0.1250000  -0.2500000   0.3750000), wk =   0.0234375
        k(   20) = (  -0.1250000  -0.3125000   0.4375000), wk =   0.0234375
        k(   21) = (  -0.1250000   0.6250000  -0.5000000), wk =   0.0234375
        k(   22) = (  -0.1250000   0.5625000  -0.4375000), wk =   0.0117188
        k(   23) = (  -0.1875000  -0.1875000   0.3750000), wk =   0.0117188
        k(   24) = (  -0.1875000  -0.2500000   0.4375000), wk =   0.0234375
        k(   25) = (  -0.1875000   0.6875000  -0.5000000), wk =   0.0234375
        k(   26) = (  -0.1875000   0.6250000  -0.4375000), wk =   0.0234375
        k(   27) = (  -0.2500000   0.7500000  -0.5000000), wk =   0.0117188
        k(   28) = (  -0.2500000   0.6875000  -0.4375000), wk =   0.0234375
        k(   29) = (  -0.2500000   0.6250000  -0.3750000), wk =   0.0117188
        k(   30) = (  -0.3125000   0.6875000  -0.3750000), wk =   0.0117188
        k(   31) = (   0.0000000   0.0000000   0.1250000), wk =   0.0029297
        k(   32) = (   0.0000000  -0.0625000   0.1875000), wk =   0.0117188
        k(   33) = (   0.0000000  -0.1250000   0.2500000), wk =   0.0117188
        k(   34) = (   0.0000000  -0.1875000   0.3125000), wk =   0.0117188
        k(   35) = (   0.0000000  -0.2500000   0.3750000), wk =   0.0117188
        k(   36) = (   0.0000000  -0.3125000   0.4375000), wk =   0.0117188
        k(   37) = (   0.0000000  -0.3750000   0.5000000), wk =   0.0117188
        k(   38) = (   0.0000000   0.5625000  -0.4375000), wk =   0.0058594
        k(   39) = (  -0.0625000  -0.0625000   0.2500000), wk =   0.0117188
        k(   40) = (  -0.0625000  -0.1250000   0.3125000), wk =   0.0234375
        k(   41) = (  -0.0625000  -0.1875000   0.3750000), wk =   0.0234375
        k(   42) = (  -0.0625000  -0.2500000   0.4375000), wk =   0.0234375
        k(   43) = (  -0.0625000  -0.3125000   0.5000000), wk =   0.0234375
        k(   44) = (  -0.0625000   0.6250000  -0.4375000), wk =   0.0234375
        k(   45) = (  -0.1250000   0.1250000   0.1250000), wk =   0.0039062
        k(   46) = (  -0.1250000  -0.1250000   0.3750000), wk =   0.0117188
        k(   47) = (  -0.1250000  -0.1875000   0.4375000), wk =   0.0234375
        k(   48) = (  -0.1250000  -0.2500000   0.5000000), wk =   0.0234375
        k(   49) = (  -0.1250000   0.6875000  -0.4375000), wk =   0.0234375
        k(   50) = (  -0.1250000   0.6250000  -0.3750000), wk =   0.0117188
        k(   51) = (  -0.1875000   0.1875000   0.1250000), wk =   0.0117188
        k(   52) = (  -0.1875000  -0.1875000   0.5000000), wk =   0.0117188
        k(   53) = (  -0.1875000   0.7500000  -0.4375000), wk =   0.0234375
        k(   54) = (  -0.1875000   0.6875000  -0.3750000), wk =   0.0234375
        k(   55) = (  -0.2500000   0.2500000   0.1250000), wk =   0.0117188
        k(   56) = (  -0.2500000   0.1875000   0.1875000), wk =   0.0117188
        k(   57) = (  -0.2500000   0.7500000  -0.3750000), wk =   0.0117188
        k(   58) = (  -0.2500000   0.6875000  -0.3125000), wk =   0.0117188
        k(   59) = (  -0.3125000   0.3125000   0.1250000), wk =   0.0117188
        k(   60) = (  -0.3125000   0.2500000   0.1875000), wk =   0.0234375
        k(   61) = (  -0.3750000   0.3750000   0.1250000), wk =   0.0117188
        k(   62) = (  -0.3750000   0.3125000   0.1875000), wk =   0.0234375
        k(   63) = (  -0.3750000   0.2500000   0.2500000), wk =   0.0117188
        k(   64) = (   0.5625000  -0.5625000   0.1250000), wk =   0.0117188
        k(   65) = (   0.5625000  -0.6250000   0.1875000), wk =   0.0234375
        k(   66) = (   0.5625000  -0.6875000   0.2500000), wk =   0.0234375
        k(   67) = (   0.5000000  -0.5000000   0.1250000), wk =   0.0058594
        k(   68) = (   0.5000000  -0.5625000   0.1875000), wk =   0.0234375
        k(   69) = (   0.5000000  -0.6250000   0.2500000), wk =   0.0234375
        k(   70) = (   0.5000000  -0.6875000   0.3125000), wk =   0.0117188
        k(   71) = (   0.4375000  -0.5625000   0.2500000), wk =   0.0117188
        k(   72) = (   0.4375000  -0.6250000   0.3125000), wk =   0.0234375
        k(   73) = (   0.3750000  -0.6250000   0.3750000), wk =   0.0039062
        k(   74) = (   0.0000000   0.0000000   0.2500000), wk =   0.0029297
        k(   75) = (   0.0000000  -0.0625000   0.3125000), wk =   0.0117188
        k(   76) = (   0.0000000  -0.1250000   0.3750000), wk =   0.0117188
        k(   77) = (   0.0000000  -0.1875000   0.4375000), wk =   0.0117188
        k(   78) = (   0.0000000  -0.2500000   0.5000000), wk =   0.0117188
        k(   79) = (   0.0000000  -0.3125000   0.5625000), wk =   0.0117188
        k(   80) = (   0.0000000   0.6250000  -0.3750000), wk =   0.0058594
        k(   81) = (  -0.0625000  -0.0625000   0.3750000), wk =   0.0117188
        k(   82) = (  -0.0625000  -0.1250000   0.4375000), wk =   0.0234375
        k(   83) = (  -0.0625000  -0.1875000   0.5000000), wk =   0.0234375
        k(   84) = (  -0.0625000  -0.2500000   0.5625000), wk =   0.0234375
        k(   85) = (  -0.0625000   0.6875000  -0.3750000), wk =   0.0234375
        k(   86) = (  -0.1250000  -0.1250000   0.5000000), wk =   0.0117188
        k(   87) = (  -0.1250000  -0.1875000   0.5625000), wk =   0.0234375
        k(   88) = (  -0.1250000   0.7500000  -0.3750000), wk =   0.0234375
        k(   89) = (  -0.1250000   0.6875000  -0.3125000), wk =   0.0117188
        k(   90) = (  -0.1875000   0.8125000  -0.3750000), wk =   0.0117188
        k(   91) = (  -0.1875000   0.7500000  -0.3125000), wk =   0.0234375
        k(   92) = (  -0.2500000   0.2500000   0.2500000), wk =   0.0039062
        k(   93) = (  -0.2500000   0.7500000  -0.2500000), wk =   0.0039062
        k(   94) = (  -0.3125000   0.3125000   0.2500000), wk =   0.0117188
        k(   95) = (   0.6250000  -0.6250000   0.2500000), wk =   0.0117188
        k(   96) = (   0.6250000  -0.6875000   0.3125000), wk =   0.0117188
        k(   97) = (   0.5625000  -0.5625000   0.2500000), wk =   0.0117188
        k(   98) = (   0.5625000  -0.6250000   0.3125000), wk =   0.0234375
        k(   99) = (   0.5000000  -0.5000000   0.2500000), wk =   0.0058594
        k(  100) = (   0.5000000  -0.5625000   0.3125000), wk =   0.0234375
        k(  101) = (   0.5000000  -0.6250000   0.3750000), wk =   0.0117188
        k(  102) = (   0.4375000  -0.5625000   0.3750000), wk =   0.0117188
        k(  103) = (   0.0000000   0.0000000   0.3750000), wk =   0.0029297
        k(  104) = (   0.0000000  -0.0625000   0.4375000), wk =   0.0117188
        k(  105) = (   0.0000000  -0.1250000   0.5000000), wk =   0.0117188
        k(  106) = (   0.0000000  -0.1875000   0.5625000), wk =   0.0117188
        k(  107) = (   0.0000000  -0.2500000   0.6250000), wk =   0.0117188
        k(  108) = (   0.0000000   0.6875000  -0.3125000), wk =   0.0058594
        k(  109) = (  -0.0625000  -0.0625000   0.5000000), wk =   0.0117188
        k(  110) = (  -0.0625000  -0.1250000   0.5625000), wk =   0.0234375
        k(  111) = (  -0.0625000  -0.1875000   0.6250000), wk =   0.0234375
        k(  112) = (  -0.0625000   0.7500000  -0.3125000), wk =   0.0234375
        k(  113) = (  -0.1250000  -0.1250000   0.6250000), wk =   0.0117188
        k(  114) = (  -0.1250000   0.8125000  -0.3125000), wk =   0.0234375
        k(  115) = (  -0.1250000   0.7500000  -0.2500000), wk =   0.0117188
        k(  116) = (  -0.1875000   0.8125000  -0.2500000), wk =   0.0117188
        k(  117) = (   0.6250000  -0.6250000   0.3750000), wk =   0.0039062
        k(  118) = (   0.5625000  -0.5625000   0.3750000), wk =   0.0117188
        k(  119) = (   0.5000000  -0.5000000   0.3750000), wk =   0.0058594
        k(  120) = (   0.5000000  -0.5625000   0.4375000), wk =   0.0117188
        k(  121) = (   0.0000000   0.0000000   0.5000000), wk =   0.0029297
        k(  122) = (   0.0000000  -0.0625000   0.5625000), wk =   0.0117188
        k(  123) = (   0.0000000  -0.1250000   0.6250000), wk =   0.0117188
        k(  124) = (   0.0000000  -0.1875000   0.6875000), wk =   0.0117188
        k(  125) = (   0.0000000   0.7500000  -0.2500000), wk =   0.0058594
        k(  126) = (  -0.0625000  -0.0625000   0.6250000), wk =   0.0117188
        k(  127) = (  -0.0625000  -0.1250000   0.6875000), wk =   0.0234375
        k(  128) = (  -0.0625000   0.8125000  -0.2500000), wk =   0.0234375
        k(  129) = (  -0.1250000   0.8750000  -0.2500000), wk =   0.0117188
        k(  130) = (  -0.1250000   0.8125000  -0.1875000), wk =   0.0117188
        k(  131) = (   0.5000000  -0.5000000   0.5000000), wk =   0.0009766
        k(  132) = (   0.0000000   0.0000000   0.6250000), wk =   0.0029297
        k(  133) = (   0.0000000  -0.0625000   0.6875000), wk =   0.0117188
        k(  134) = (   0.0000000  -0.1250000   0.7500000), wk =   0.0117188
        k(  135) = (   0.0000000   0.8125000  -0.1875000), wk =   0.0058594
        k(  136) = (  -0.0625000  -0.0625000   0.7500000), wk =   0.0117188
        k(  137) = (  -0.0625000   0.8750000  -0.1875000), wk =   0.0234375
        k(  138) = (  -0.1250000   0.8750000  -0.1250000), wk =   0.0039062
        k(  139) = (   0.0000000   0.0000000   0.7500000), wk =   0.0029297
        k(  140) = (   0.0000000  -0.0625000   0.8125000), wk =   0.0117188
        k(  141) = (   0.0000000   0.8750000  -0.1250000), wk =   0.0058594
        k(  142) = (  -0.0625000   0.9375000  -0.1250000), wk =   0.0117188
        k(  143) = (   0.0000000   0.0000000   0.8750000), wk =   0.0029297
        k(  144) = (   0.0000000   0.9375000  -0.0625000), wk =   0.0058594
        k(  145) = (   0.0000000   0.0000000  -1.0000000), wk =   0.0004883

                       cryst. coord.
        k(    1) = (   0.0000000   0.0000000   0.0000000), wk =   0.0004883
        k(    2) = (   0.0000000   0.0000000   0.0625000), wk =   0.0058594
        k(    3) = (   0.0000000   0.0000000   0.1250000), wk =   0.0058594
        k(    4) = (   0.0000000   0.0000000   0.1875000), wk =   0.0058594
        k(    5) = (   0.0000000   0.0000000   0.2500000), wk =   0.0058594
        k(    6) = (   0.0000000   0.0000000   0.3125000), wk =   0.0058594
        k(    7) = (   0.0000000   0.0000000   0.3750000), wk =   0.0058594
        k(    8) = (   0.0000000   0.0000000   0.4375000), wk =   0.0058594
        k(    9) = (   0.0000000   0.0000000  -0.5000000), wk =   0.0029297
        k(   10) = (   0.0000000   0.0625000   0.1250000), wk =   0.0117188
        k(   11) = (   0.0000000   0.0625000   0.1875000), wk =   0.0234375
        k(   12) = (   0.0000000   0.0625000   0.2500000), wk =   0.0234375
        k(   13) = (   0.0000000   0.0625000   0.3125000), wk =   0.0234375
        k(   14) = (   0.0000000   0.0625000   0.3750000), wk =   0.0234375
        k(   15) = (   0.0000000   0.0625000   0.4375000), wk =   0.0234375
        k(   16) = (   0.0000000   0.0625000  -0.5000000), wk =   0.0234375
        k(   17) = (   0.0000000   0.1250000   0.2500000), wk =   0.0117188
        k(   18) = (   0.0000000   0.1250000   0.3125000), wk =   0.0234375
        k(   19) = (   0.0000000   0.1250000   0.3750000), wk =   0.0234375
        k(   20) = (   0.0000000   0.1250000   0.4375000), wk =   0.0234375
        k(   21) = (   0.0000000   0.1250000  -0.5000000), wk =   0.0234375
        k(   22) = (   0.0000000   0.1250000  -0.4375000), wk =   0.0117188
        k(   23) = (   0.0000000   0.1875000   0.3750000), wk =   0.0117188
        k(   24) = (   0.0000000   0.1875000   0.4375000), wk =   0.0234375
        k(   25) = (   0.0000000   0.1875000  -0.5000000), wk =   0.0234375
        k(   26) = (   0.0000000   0.1875000  -0.4375000), wk =   0.0234375
        k(   27) = (   0.0000000   0.2500000  -0.5000000), wk =   0.0117188
        k(   28) = (   0.0000000   0.2500000  -0.4375000), wk =   0.0234375
        k(   29) = (   0.0000000   0.2500000  -0.3750000), wk =   0.0117188
        k(   30) = (   0.0000000   0.3125000  -0.3750000), wk =   0.0117188
        k(   31) = (   0.0625000   0.0625000   0.0625000), wk =   0.0029297
        k(   32) = (   0.0625000   0.0625000   0.1250000), wk =   0.0117188
        k(   33) = (   0.0625000   0.0625000   0.1875000), wk =   0.0117188
        k(   34) = (   0.0625000   0.0625000   0.2500000), wk =   0.0117188
        k(   35) = (   0.0625000   0.0625000   0.3125000), wk =   0.0117188
        k(   36) = (   0.0625000   0.0625000   0.3750000), wk =   0.0117188
        k(   37) = (   0.0625000   0.0625000   0.4375000), wk =   0.0117188
        k(   38) = (   0.0625000   0.0625000  -0.5000000), wk =   0.0058594
        k(   39) = (   0.0625000   0.1250000   0.1875000), wk =   0.0117188
        k(   40) = (   0.0625000   0.1250000   0.2500000), wk =   0.0234375
        k(   41) = (   0.0625000   0.1250000   0.3125000), wk =   0.0234375
        k(   42) = (   0.0625000   0.1250000   0.3750000), wk =   0.0234375
        k(   43) = (   0.0625000   0.1250000   0.4375000), wk =   0.0234375
        k(   44) = (   0.0625000   0.1250000  -0.5000000), wk =   0.0234375
        k(   45) = (   0.0625000   0.1875000   0.0625000), wk =   0.0039062
        k(   46) = (   0.0625000   0.1875000   0.3125000), wk =   0.0117188
        k(   47) = (   0.0625000   0.1875000   0.3750000), wk =   0.0234375
        k(   48) = (   0.0625000   0.1875000   0.4375000), wk =   0.0234375
        k(   49) = (   0.0625000   0.1875000  -0.5000000), wk =   0.0234375
        k(   50) = (   0.0625000   0.1875000  -0.4375000), wk =   0.0117188
        k(   51) = (   0.0625000   0.2500000   0.0625000), wk =   0.0117188
        k(   52) = (   0.0625000   0.2500000   0.4375000), wk =   0.0117188
        k(   53) = (   0.0625000   0.2500000  -0.5000000), wk =   0.0234375
        k(   54) = (   0.0625000   0.2500000  -0.4375000), wk =   0.0234375
        k(   55) = (   0.0625000   0.3125000   0.0625000), wk =   0.0117188
        k(   56) = (   0.0625000   0.3125000   0.1250000), wk =   0.0117188
        k(   57) = (   0.0625000   0.3125000  -0.4375000), wk =   0.0117188
        k(   58) = (   0.0625000   0.3125000  -0.3750000), wk =   0.0117188
        k(   59) = (   0.0625000   0.3750000   0.0625000), wk =   0.0117188
        k(   60) = (   0.0625000   0.3750000   0.1250000), wk =   0.0234375
        k(   61) = (   0.0625000   0.4375000   0.0625000), wk =   0.0117188
        k(   62) = (   0.0625000   0.4375000   0.1250000), wk =   0.0234375
        k(   63) = (   0.0625000   0.4375000   0.1875000), wk =   0.0117188
        k(   64) = (   0.0625000  -0.5000000   0.0625000), wk =   0.0117188
        k(   65) = (   0.0625000  -0.5000000   0.1250000), wk =   0.0234375
        k(   66) = (   0.0625000  -0.5000000   0.1875000), wk =   0.0234375
        k(   67) = (   0.0625000  -0.4375000   0.0625000), wk =   0.0058594
        k(   68) = (   0.0625000  -0.4375000   0.1250000), wk =   0.0234375
        k(   69) = (   0.0625000  -0.4375000   0.1875000), wk =   0.0234375
        k(   70) = (   0.0625000  -0.4375000   0.2500000), wk =   0.0117188
        k(   71) = (   0.0625000  -0.3750000   0.1875000), wk =   0.0117188
        k(   72) = (   0.0625000  -0.3750000   0.2500000), wk =   0.0234375
        k(   73) = (   0.0625000  -0.3125000   0.3125000), wk =   0.0039062
        k(   74) = (   0.1250000   0.1250000   0.1250000), wk =   0.0029297
        k(   75) = (   0.1250000   0.1250000   0.1875000), wk =   0.0117188
        k(   76) = (   0.1250000   0.1250000   0.2500000), wk =   0.0117188
        k(   77) = (   0.1250000   0.1250000   0.3125000), wk =   0.0117188
        k(   78) = (   0.1250000   0.1250000   0.3750000), wk =   0.0117188
        k(   79) = (   0.1250000   0.1250000   0.4375000), wk =   0.0117188
        k(   80) = (   0.1250000   0.1250000  -0.5000000), wk =   0.0058594
        k(   81) = (   0.1250000   0.1875000   0.2500000), wk =   0.0117188
        k(   82) = (   0.1250000   0.1875000   0.3125000), wk =   0.0234375
        k(   83) = (   0.1250000   0.1875000   0.3750000), wk =   0.0234375
        k(   84) = (   0.1250000   0.1875000   0.4375000), wk =   0.0234375
        k(   85) = (   0.1250000   0.1875000  -0.5000000), wk =   0.0234375
        k(   86) = (   0.1250000   0.2500000   0.3750000), wk =   0.0117188
        k(   87) = (   0.1250000   0.2500000   0.4375000), wk =   0.0234375
        k(   88) = (   0.1250000   0.2500000  -0.5000000), wk =   0.0234375
        k(   89) = (   0.1250000   0.2500000  -0.4375000), wk =   0.0117188
        k(   90) = (   0.1250000   0.3125000  -0.5000000), wk =   0.0117188
        k(   91) = (   0.1250000   0.3125000  -0.4375000), wk =   0.0234375
        k(   92) = (   0.1250000   0.3750000   0.1250000), wk =   0.0039062
        k(   93) = (   0.1250000   0.3750000  -0.3750000), wk =   0.0039062
        k(   94) = (   0.1250000   0.4375000   0.1250000), wk =   0.0117188
        k(   95) = (   0.1250000  -0.5000000   0.1250000), wk =   0.0117188
        k(   96) = (   0.1250000  -0.5000000   0.1875000), wk =   0.0117188
        k(   97) = (   0.1250000  -0.4375000   0.1250000), wk =   0.0117188
        k(   98) = (   0.1250000  -0.4375000   0.1875000), wk =   0.0234375
        k(   99) = (   0.1250000  -0.3750000   0.1250000), wk =   0.0058594
        k(  100) = (   0.1250000  -0.3750000   0.1875000), wk =   0.0234375
        k(  101) = (   0.1250000  -0.3750000   0.2500000), wk =   0.0117188
        k(  102) = (   0.1250000  -0.3125000   0.2500000), wk =   0.0117188
        k(  103) = (   0.1875000   0.1875000   0.1875000), wk =   0.0029297
        k(  104) = (   0.1875000   0.1875000   0.2500000), wk =   0.0117188
        k(  105) = (   0.1875000   0.1875000   0.3125000), wk =   0.0117188
        k(  106) = (   0.1875000   0.1875000   0.3750000), wk =   0.0117188
        k(  107) = (   0.1875000   0.1875000   0.4375000), wk =   0.0117188
        k(  108) = (   0.1875000   0.1875000  -0.5000000), wk =   0.0058594
        k(  109) = (   0.1875000   0.2500000   0.3125000), wk =   0.0117188
        k(  110) = (   0.1875000   0.2500000   0.3750000), wk =   0.0234375
        k(  111) = (   0.1875000   0.2500000   0.4375000), wk =   0.0234375
        k(  112) = (   0.1875000   0.2500000  -0.5000000), wk =   0.0234375
        k(  113) = (   0.1875000   0.3125000   0.4375000), wk =   0.0117188
        k(  114) = (   0.1875000   0.3125000  -0.5000000), wk =   0.0234375
        k(  115) = (   0.1875000   0.3125000  -0.4375000), wk =   0.0117188
        k(  116) = (   0.1875000   0.3750000  -0.4375000), wk =   0.0117188
        k(  117) = (   0.1875000  -0.4375000   0.1875000), wk =   0.0039062
        k(  118) = (   0.1875000  -0.3750000   0.1875000), wk =   0.0117188
        k(  119) = (   0.1875000  -0.3125000   0.1875000), wk =   0.0058594
        k(  120) = (   0.1875000  -0.3125000   0.2500000), wk =   0.0117188
        k(  121) = (   0.2500000   0.2500000   0.2500000), wk =   0.0029297
        k(  122) = (   0.2500000   0.2500000   0.3125000), wk =   0.0117188
        k(  123) = (   0.2500000   0.2500000   0.3750000), wk =   0.0117188
        k(  124) = (   0.2500000   0.2500000   0.4375000), wk =   0.0117188
        k(  125) = (   0.2500000   0.2500000  -0.5000000), wk =   0.0058594
        k(  126) = (   0.2500000   0.3125000   0.3750000), wk =   0.0117188
        k(  127) = (   0.2500000   0.3125000   0.4375000), wk =   0.0234375
        k(  128) = (   0.2500000   0.3125000  -0.5000000), wk =   0.0234375
        k(  129) = (   0.2500000   0.3750000  -0.5000000), wk =   0.0117188
        k(  130) = (   0.2500000   0.3750000  -0.4375000), wk =   0.0117188
        k(  131) = (   0.2500000  -0.2500000   0.2500000), wk =   0.0009766
        k(  132) = (   0.3125000   0.3125000   0.3125000), wk =   0.0029297
        k(  133) = (   0.3125000   0.3125000   0.3750000), wk =   0.0117188
        k(  134) = (   0.3125000   0.3125000   0.4375000), wk =   0.0117188
        k(  135) = (   0.3125000   0.3125000  -0.5000000), wk =   0.0058594
        k(  136) = (   0.3125000   0.3750000   0.4375000), wk =   0.0117188
        k(  137) = (   0.3125000   0.3750000  -0.5000000), wk =   0.0234375
        k(  138) = (   0.3125000   0.4375000  -0.4375000), wk =   0.0039062
        k(  139) = (   0.3750000   0.3750000   0.3750000), wk =   0.0029297
        k(  140) = (   0.3750000   0.3750000   0.4375000), wk =   0.0117188
        k(  141) = (   0.3750000   0.3750000  -0.5000000), wk =   0.0058594
        k(  142) = (   0.3750000   0.4375000  -0.5000000), wk =   0.0117188
        k(  143) = (   0.4375000   0.4375000   0.4375000), wk =   0.0029297
        k(  144) = (   0.4375000   0.4375000  -0.5000000), wk =   0.0058594
        k(  145) = (  -0.5000000  -0.5000000  -0.5000000), wk =   0.0004883

     Dense  grid:    47597 G-vectors     FFT dimensions: (  50,  50,  50)

     Smooth grid:     9189 G-vectors     FFT dimensions: (  30,  30,  30)

     Dynamical RAM for                 wfc:       0.03 MB

     Dynamical RAM for     wfc (w. buffer):       0.29 MB

     Dynamical RAM for           str. fact:       0.09 MB

     Dynamical RAM for           local pot:       0.00 MB

     Dynamical RAM for          nlocal pot:       0.04 MB

     Dynamical RAM for                qrad:       2.64 MB

     Dynamical RAM for          rho,v,vnew:       0.67 MB

     Dynamical RAM for               rhoin:       0.22 MB

     Dynamical RAM for            rho*nmix:       1.45 MB

     Dynamical RAM for           G-vectors:       0.35 MB

     Dynamical RAM for          h,s,v(r/c):       0.03 MB

     Dynamical RAM for          <psi|beta>:       0.00 MB

     Dynamical RAM for                 psi:       0.05 MB

     Dynamical RAM for                hpsi:       0.05 MB

     Dynamical RAM for                spsi:       0.05 MB

     Dynamical RAM for      wfcinit/wfcrot:       0.06 MB

     Dynamical RAM for           addusdens:       1.14 MB

     Dynamical RAM for          addusforce:       1.11 MB

     Dynamical RAM for         addusstress:       1.18 MB

     Estimated static dynamical RAM per process >       5.15 MB

     Estimated max dynamical RAM per process >       7.78 MB

     Estimated total dynamical RAM >     821.82 MB

     Check: negative core charge=   -0.000010

     Initial potential from superposition of free atoms

     starting charge      15.9996, renormalised to      16.0000
     Starting wfcs are   13 randomized atomic wfcs
     Checking if some PAW data can be deallocated... 

     total cpu time spent up to now is        0.9 secs

     per-process dynamical memory:   185.7 Mb

     Self-consistent Calculation

     iteration #  1     ecut=    90.00 Ry     beta= 0.20
     Davidson diagonalization with overlap

---- Real-time Memory Report at c_bands before calling an iterative solver
           307 MiB given to the printing process from OS
           181 MiB allocation reported by mallinfo(arena+hblkhd)
        450537 MiB available memory on the node where the printing process lives
------------------
     ethr =  1.00E-02,  avg # of iterations =  3.1

     Threshold (ethr) on eigenvalues was too large:
     Diagonalizing with lowered threshold

     Davidson diagonalization with overlap

---- Real-time Memory Report at c_bands before calling an iterative solver
           336 MiB given to the printing process from OS
           181 MiB allocation reported by mallinfo(arena+hblkhd)
        450537 MiB available memory on the node where the printing process lives
------------------
     ethr =  2.22E-04,  avg # of iterations =  3.7

     total cpu time spent up to now is        1.2 secs

     total energy              =    -329.22463373 Ry
     estimated scf accuracy    <       0.03555717 Ry

     iteration #  2     ecut=    90.00 Ry     beta= 0.20
     Davidson diagonalization with overlap

---- Real-time Memory Report at c_bands before calling an iterative solver
           345 MiB given to the printing process from OS
           182 MiB allocation reported by mallinfo(arena+hblkhd)
        450429 MiB available memory on the node where the printing process lives
------------------
     ethr =  2.22E-04,  avg # of iterations =  1.6

     total cpu time spent up to now is        1.4 secs

     total energy              =    -329.22780603 Ry
     estimated scf accuracy    <       0.00251632 Ry

     iteration #  3     ecut=    90.00 Ry     beta= 0.20
     Davidson diagonalization with overlap

---- Real-time Memory Report at c_bands before calling an iterative solver
           345 MiB given to the printing process from OS
           182 MiB allocation reported by mallinfo(arena+hblkhd)
        450428 MiB available memory on the node where the printing process lives
------------------
     ethr =  1.57E-05,  avg # of iterations =  3.2

     total cpu time spent up to now is        1.7 secs

     total energy              =    -329.22835974 Ry
     estimated scf accuracy    <       0.00053885 Ry

     iteration #  4     ecut=    90.00 Ry     beta= 0.20
     Davidson diagonalization with overlap

---- Real-time Memory Report at c_bands before calling an iterative solver
           345 MiB given to the printing process from OS
           182 MiB allocation reported by mallinfo(arena+hblkhd)
        450438 MiB available memory on the node where the printing process lives
------------------
     ethr =  3.37E-06,  avg # of iterations =  2.0

     total cpu time spent up to now is        1.9 secs

     total energy              =    -329.22837595 Ry
     estimated scf accuracy    <       0.00014694 Ry

     iteration #  5     ecut=    90.00 Ry     beta= 0.20
     Davidson diagonalization with overlap

---- Real-time Memory Report at c_bands before calling an iterative solver
           345 MiB given to the printing process from OS
           182 MiB allocation reported by mallinfo(arena+hblkhd)
        450439 MiB available memory on the node where the printing process lives
------------------
     ethr =  9.18E-07,  avg # of iterations =  2.1

     total cpu time spent up to now is        2.1 secs

     total energy              =    -329.22840861 Ry
     estimated scf accuracy    <       0.00000254 Ry

     iteration #  6     ecut=    90.00 Ry     beta= 0.20
     Davidson diagonalization with overlap

---- Real-time Memory Report at c_bands before calling an iterative solver
           345 MiB given to the printing process from OS
           182 MiB allocation reported by mallinfo(arena+hblkhd)
        450437 MiB available memory on the node where the printing process lives
------------------
     ethr =  1.59E-08,  avg # of iterations =  4.4

     total cpu time spent up to now is        2.3 secs

     total energy              =    -329.22841187 Ry
     estimated scf accuracy    <       0.00000287 Ry

     iteration #  7     ecut=    90.00 Ry     beta= 0.20
     Davidson diagonalization with overlap

---- Real-time Memory Report at c_bands before calling an iterative solver
           345 MiB given to the printing process from OS
           182 MiB allocation reported by mallinfo(arena+hblkhd)
        450436 MiB available memory on the node where the printing process lives
------------------
     ethr =  1.59E-08,  avg # of iterations =  2.0

     total cpu time spent up to now is        2.5 secs

     total energy              =    -329.22841271 Ry
     estimated scf accuracy    <       0.00000001 Ry

     iteration #  8     ecut=    90.00 Ry     beta= 0.20
     Davidson diagonalization with overlap

---- Real-time Memory Report at c_bands before calling an iterative solver
           345 MiB given to the printing process from OS
           182 MiB allocation reported by mallinfo(arena+hblkhd)
        450434 MiB available memory on the node where the printing process lives
------------------
     ethr =  9.22E-11,  avg # of iterations =  5.5

     total cpu time spent up to now is        2.8 secs

     total energy              =    -329.22841297 Ry
     estimated scf accuracy    <       0.00000003 Ry

     iteration #  9     ecut=    90.00 Ry     beta= 0.20
     Davidson diagonalization with overlap

---- Real-time Memory Report at c_bands before calling an iterative solver
           345 MiB given to the printing process from OS
           182 MiB allocation reported by mallinfo(arena+hblkhd)
        450439 MiB available memory on the node where the printing process lives
------------------
     ethr =  9.22E-11,  avg # of iterations =  1.0

     total cpu time spent up to now is        2.9 secs

     total energy              =    -329.22841313 Ry
     estimated scf accuracy    <       0.00000001 Ry

     iteration # 10     ecut=    90.00 Ry     beta= 0.20
     Davidson diagonalization with overlap

---- Real-time Memory Report at c_bands before calling an iterative solver
           345 MiB given to the printing process from OS
           182 MiB allocation reported by mallinfo(arena+hblkhd)
        450438 MiB available memory on the node where the printing process lives
------------------
     ethr =  7.57E-11,  avg # of iterations =  1.0

     total cpu time spent up to now is        3.1 secs

     total energy              =    -329.22841323 Ry
     estimated scf accuracy    <          8.5E-09 Ry

     iteration # 11     ecut=    90.00 Ry     beta= 0.20
     Davidson diagonalization with overlap

---- Real-time Memory Report at c_bands before calling an iterative solver
           345 MiB given to the printing process from OS
           182 MiB allocation reported by mallinfo(arena+hblkhd)
        450437 MiB available memory on the node where the printing process lives
------------------
     ethr =  5.33E-11,  avg # of iterations =  1.0

     total cpu time spent up to now is        3.3 secs

     total energy              =    -329.22841329 Ry
     estimated scf accuracy    <       0.00000001 Ry

     iteration # 12     ecut=    90.00 Ry     beta= 0.20
     Davidson diagonalization with overlap

---- Real-time Memory Report at c_bands before calling an iterative solver
           345 MiB given to the printing process from OS
           182 MiB allocation reported by mallinfo(arena+hblkhd)
        450437 MiB available memory on the node where the printing process lives
------------------
     ethr =  5.33E-11,  avg # of iterations =  1.6

     total cpu time spent up to now is        3.5 secs

     total energy              =    -329.22841333 Ry
     estimated scf accuracy    <          1.1E-09 Ry

     iteration # 13     ecut=    90.00 Ry     beta= 0.20
     Davidson diagonalization with overlap

---- Real-time Memory Report at c_bands before calling an iterative solver
           345 MiB given to the printing process from OS
           182 MiB allocation reported by mallinfo(arena+hblkhd)
        450436 MiB available memory on the node where the printing process lives
------------------
     ethr =  6.75E-12,  avg # of iterations =  2.0

     total cpu time spent up to now is        3.7 secs

     total energy              =    -329.22841336 Ry
     estimated scf accuracy    <          6.8E-10 Ry

     iteration # 14     ecut=    90.00 Ry     beta= 0.20
     Davidson diagonalization with overlap

---- Real-time Memory Report at c_bands before calling an iterative solver
           345 MiB given to the printing process from OS
           182 MiB allocation reported by mallinfo(arena+hblkhd)
        450431 MiB available memory on the node where the printing process lives
------------------
     ethr =  4.22E-12,  avg # of iterations =  4.0

     total cpu time spent up to now is        4.0 secs

     total energy              =    -329.22841338 Ry
     estimated scf accuracy    <          3.8E-09 Ry

     iteration # 15     ecut=    90.00 Ry     beta= 0.20
     Davidson diagonalization with overlap

---- Real-time Memory Report at c_bands before calling an iterative solver
           345 MiB given to the printing process from OS
           182 MiB allocation reported by mallinfo(arena+hblkhd)
        450434 MiB available memory on the node where the printing process lives
------------------
     ethr =  4.22E-12,  avg # of iterations =  1.0

     total cpu time spent up to now is        4.2 secs

     total energy              =    -329.22841339 Ry
     estimated scf accuracy    <          3.7E-09 Ry

     iteration # 16     ecut=    90.00 Ry     beta= 0.20
     Davidson diagonalization with overlap

---- Real-time Memory Report at c_bands before calling an iterative solver
           345 MiB given to the printing process from OS
           182 MiB allocation reported by mallinfo(arena+hblkhd)
        450432 MiB available memory on the node where the printing process lives
------------------
     ethr =  4.22E-12,  avg # of iterations =  2.0

     total cpu time spent up to now is        4.4 secs

     total energy              =    -329.22841339 Ry
     estimated scf accuracy    <          4.4E-10 Ry

     iteration # 17     ecut=    90.00 Ry     beta= 0.20
     Davidson diagonalization with overlap

---- Real-time Memory Report at c_bands before calling an iterative solver
           345 MiB given to the printing process from OS
           182 MiB allocation reported by mallinfo(arena+hblkhd)
        450432 MiB available memory on the node where the printing process lives
------------------
     ethr =  2.75E-12,  avg # of iterations =  2.8

     total cpu time spent up to now is        4.6 secs

     End of self-consistent calculation

          k = 0.0000 0.0000 0.0000 (  1157 PWs)   bands (ev):

   -69.5802 -35.4164 -35.4164 -35.4164   9.1892  15.9811  15.9811  15.9811
    17.4791  17.4791  41.8580  41.8580

     occupation numbers 
     1.0000   1.0000   1.0000   1.0000   1.0000   1.0000   1.0000   1.0000
     0.6167   0.6167   0.0000   0.0000

          k = 0.0000-0.0625 0.0625 (  1145 PWs)   bands (ev):

   -69.5775 -35.4309 -35.4212 -35.4163   9.3470  15.9357  15.9758  16.0671
    17.4323  17.4827  40.8378  41.6304

     occupation numbers 
     1.0000   1.0000   1.0000   1.0000   1.0000   1.0000   1.0000   1.0000
     0.8588   0.5968   0.0000   0.0000

          k = 0.0000-0.1250 0.1250 (  1141 PWs)   bands (ev):

   -69.5700 -35.4724 -35.4350 -35.4163   9.8093  15.8081  15.9451  16.3170
    17.3269  17.4946  38.5700  40.8169

     occupation numbers 
     1.0000   1.0000   1.0000   1.0000   1.0000   1.0000   1.0000   1.0000
     1.0833   0.5310   0.0000   0.0000

          k = 0.0000-0.1875 0.1875 (  1139 PWs)   bands (ev):

   -69.5588 -35.5342 -35.4557 -35.4162  10.5384  15.6213  15.8654  16.7069
    17.2456  17.5172  35.8387  39.5508

     occupation numbers 
     1.0000   1.0000   1.0000   1.0000   1.0000   1.0000   1.0000   1.0000
     1.0403   0.4111   0.0000   0.0000

          k = 0.0000-0.2500 0.2500 (  1134 PWs)   bands (ev):

   -69.5455 -35.6065 -35.4800 -35.4161  11.4481  15.4069  15.7822  17.1945
    17.2466  17.5513  32.9957  38.2174

     occupation numbers 
     1.0000   1.0000   1.0000   1.0000   1.0000   1.0000   1.0000   1.0150
     1.0409   0.2552   0.0000   0.0000

          k = 0.0000-0.3125 0.3125 (  1144 PWs)   bands (ev):

   -69.5323 -35.6784 -35.5043 -35.4161  12.3491  15.1987  15.8895  17.3156
    17.5939  17.7180  30.2372  37.0456

     occupation numbers 
     1.0000   1.0000   1.0000   1.0000   1.0000   1.0000   1.0000   1.0818
     0.1202   0.0047   0.0000   0.0000

          k = 0.0000-0.3750 0.3750 (  1148 PWs)   bands (ev):

   -69.5210 -35.7389 -35.5248 -35.4160  12.9485  15.0266  16.4502  17.4101
    17.6371  18.1957  27.7345  36.1468

     occupation numbers 
     1.0000   1.0000   1.0000   1.0000   1.0000   1.0000   1.0000   0.9488
     0.0467   0.0000   0.0000   0.0000

          k = 0.0000-0.4375 0.4375 (  1148 PWs)   bands (ev):

   -69.5134 -35.7791 -35.5384 -35.4160  13.1735  14.9139  17.2821  17.5536
    17.6696  18.5358  25.7701  35.5838

     occupation numbers 
     1.0000   1.0000   1.0000   1.0000   1.0000   1.0000   1.0649   0.2463
     0.0201   0.0000   0.0000   0.0000

          k = 0.0000 0.5000-0.5000 (  1148 PWs)   bands (ev):

   -69.5108 -35.7932 -35.5432 -35.4160  13.2171  14.8747  17.4481  17.6818
    17.9112  18.6598  24.9458  35.3921

     occupation numbers 
     1.0000   1.0000   1.0000   1.0000   1.0000   1.0000   0.7827   0.0143
     0.0000   0.0000   0.0000   0.0000

          k =-0.0625-0.0625 0.1250 (  1139 PWs)   bands (ev):

   -69.5725 -35.4597 -35.4262 -35.4199   9.6573  15.8765  15.9194  16.2470
    17.3492  17.4967  39.5075  40.4106

     occupation numbers 
     1.0000   1.0000   1.0000   1.0000   1.0000   1.0000   1.0000   1.0000
     1.0758   0.5195   0.0000   0.0000

          k =-0.0625-0.1250 0.1875 (  1146 PWs)   bands (ev):

   -69.5631 -35.5107 -35.4426 -35.4214  10.2551  15.7236  15.8470  16.5807
    17.2413  17.5268  37.2191  39.0679

     occupation numbers 
     1.0000   1.0000   1.0000   1.0000   1.0000   1.0000   1.0000   1.0000
     1.0375   0.3632   0.0000   0.0000

          k =-0.0625-0.1875 0.2500 (  1141 PWs)   bands (ev):

   -69.5509 -35.5760 -35.4665 -35.4216  11.0838  15.5187  15.7439  17.0350
    17.1951  17.5675  34.4698  37.8303

     occupation numbers 
     1.0000   1.0000   1.0000   1.0000   1.0000   1.0000   1.0000   1.0001
     1.0152   0.1958   0.0000   0.0000

          k =-0.0625-0.2500 0.3125 (  1136 PWs)   bands (ev):

   -69.5376 -35.6459 -35.4927 -35.4217  12.0164  15.3043  15.7010  17.2317
    17.5590  17.6296  31.6628  36.7070

     occupation numbers 
     1.0000   1.0000   1.0000   1.0000   1.0000   1.0000   1.0000   1.0318
     0.2258   0.0557   0.0000   0.0000

          k =-0.0625-0.3125 0.3750 (  1140 PWs)   bands (ev):

   -69.5253 -35.7100 -35.5170 -35.4218  12.7962  15.1138  15.9502  17.3281
    17.6658  18.1372  29.0046  35.7743

     occupation numbers 
     1.0000   1.0000   1.0000   1.0000   1.0000   1.0000   1.0000   1.0833
     0.0224   0.0000   0.0000   0.0000

          k =-0.0625-0.3750 0.4375 (  1145 PWs)   bands (ev):

   -69.5159 -35.7588 -35.5356 -35.4218  13.1843  14.9726  16.5766  17.4199
    17.7679  18.6724  26.7043  35.1047

     occupation numbers 
     1.0000   1.0000   1.0000   1.0000   1.0000   1.0000   1.0000   0.9119
     0.0008   0.0000   0.0000   0.0000

          k =-0.0625 0.5625-0.5000 (  1144 PWs)   bands (ev):

   -69.5108 -35.7850 -35.5457 -35.4218  13.2895  14.8976  17.0863  17.4407
    17.9515  19.1208  25.1831  34.7539

     occupation numbers 
     1.0000   1.0000   1.0000   1.0000   1.0000   1.0000   1.0006   0.8196
     0.0000   0.0000   0.0000   0.0000

          k =-0.1250-0.1250 0.2500 (  1146 PWs)   bands (ev):

   -69.5527 -35.5646 -35.4563 -35.4297  10.9588  15.6100  15.6657  17.0055
    17.1541  17.5886  35.6389  36.7701

     occupation numbers 
     1.0000   1.0000   1.0000   1.0000   1.0000   1.0000   1.0000   1.0000
     1.0054   0.1334   0.0000   0.0000

          k =-0.1250-0.1875 0.3125 (  1140 PWs)   bands (ev):

   -69.5405 -35.6249 -35.4814 -35.4334  11.8398  15.4121  15.5310  17.1406
    17.5216  17.6839  33.2133  35.2244

     occupation numbers 
     1.0000   1.0000   1.0000   1.0000   1.0000   1.0000   1.0000   1.0037
     0.3888   0.0134   0.0000   0.0000

          k =-0.1250-0.2500 0.3750 (  1145 PWs)   bands (ev):

   -69.5282 -35.6832 -35.5103 -35.4349  12.7189  15.2024  15.5380  17.2112
    17.6869  18.2187  30.5015  34.1828

     occupation numbers 
     1.0000   1.0000   1.0000   1.0000   1.0000   1.0000   1.0000   1.0215
     0.0123   0.0000   0.0000   0.0000

          k =-0.1250-0.3125 0.4375 (  1144 PWs)   bands (ev):

   -69.5178 -35.7315 -35.5361 -35.4356  13.2992  15.0457  15.8391  17.3233
    17.7635  18.9391  27.9688  33.4062

     occupation numbers 
     1.0000   1.0000   1.0000   1.0000   1.0000   1.0000   1.0000   1.0832
     0.0010   0.0000   0.0000   0.0000

          k =-0.1250 0.6250-0.5000 (  1150 PWs)   bands (ev):

   -69.5108 -35.7633 -35.5537 -35.4360  13.4971  14.9500  16.2954  17.3993
    17.8854  19.7266  25.9119  32.9109

     occupation numbers 
     1.0000   1.0000   1.0000   1.0000   1.0000   1.0000   1.0000   0.9843
     0.0000   0.0000   0.0000   0.0000

          k =-0.1250 0.5625-0.4375 (  1145 PWs)   bands (ev):

   -69.5084 -35.7744 -35.5600 -35.4361  13.5288  14.9175  16.4944  17.4146
    17.9647  20.1857  24.9960  32.7392

     occupation numbers 
     1.0000   1.0000   1.0000   1.0000   1.0000   1.0000   1.0000   0.9324
     0.0000   0.0000   0.0000   0.0000

          k =-0.1875-0.1875 0.3750 (  1140 PWs)   bands (ev):

   -69.5292 -35.6718 -35.5067 -35.4426  12.6970  15.2365  15.3931  17.1549
    17.6920  18.2624  31.8702  32.6931

     occupation numbers 
     1.0000   1.0000   1.0000   1.0000   1.0000   1.0000   1.0000   1.0055
     0.0106   0.0000   0.0000   0.0000

          k =-0.1875-0.2500 0.4375 (  1145 PWs)   bands (ev):

   -69.5188 -35.7105 -35.5383 -35.4474  13.4342  15.0560  15.4288  17.2389
    17.7518  19.0969  29.5068  31.4837

     occupation numbers 
     1.0000   1.0000   1.0000   1.0000   1.0000   1.0000   1.0000   1.0361
     0.0015   0.0000   0.0000   0.0000

          k =-0.1875 0.6875-0.5000 (  1148 PWs)   bands (ev):

   -69.5108 -35.7371 -35.5666 -35.4497  13.7937  14.9711  15.6594  17.3499
    17.8142  20.1102  27.1223  30.8232

     occupation numbers 
     1.0000   1.0000   1.0000   1.0000   1.0000   1.0000   1.0000   1.0753
     0.0001   0.0000   0.0000   0.0000

          k =-0.1875 0.6250-0.4375 (  1146 PWs)   bands (ev):

   -69.5065 -35.7505 -35.5832 -35.4507  13.8670  14.9410  15.8916  17.4153
    17.8831  21.1157  25.3680  30.4830

     occupation numbers 
     1.0000   1.0000   1.0000   1.0000   1.0000   1.0000   1.0000   0.9299
     0.0000   0.0000   0.0000   0.0000

          k =-0.2500 0.7500-0.5000 (  1157 PWs)   bands (ev):

   -69.5108 -35.7241 -35.5744 -35.4552  13.9839  14.9158  15.4224  17.3259
    17.7861  20.2355  28.4207  29.2189

     occupation numbers 
     1.0000   1.0000   1.0000   1.0000   1.0000   1.0000   1.0000   1.0833
     0.0004   0.0000   0.0000   0.0000

          k =-0.2500 0.6875-0.4375 (  1152 PWs)   bands (ev):

   -69.5055 -35.7253 -35.6078 -35.4590  14.2169  14.9059  15.4569  17.4375
    17.7987  21.5957  26.4017  28.4656

     occupation numbers 
     1.0000   1.0000   1.0000   1.0000   1.0000   1.0000   1.0000   0.8348
     0.0002   0.0000   0.0000   0.0000

          k =-0.2500 0.6250-0.3750 (  1152 PWs)   bands (ev):

   -69.5036 -35.7229 -35.6225 -35.4601  14.2489  14.9385  15.4762  17.4909
    17.8012  22.5543  25.1466  28.2766

     occupation numbers 
     1.0000   1.0000   1.0000   1.0000   1.0000   1.0000   1.0000   0.5515
     0.0002   0.0000   0.0000   0.0000

          k =-0.3125 0.6875-0.3750 (  1158 PWs)   bands (ev):

   -69.5026 -35.6988 -35.6510 -35.4631  14.4672  14.9559  15.2266  17.5670
    17.7220  23.2935  25.3127  27.0363

     occupation numbers 
     1.0000   1.0000   1.0000   1.0000   1.0000   1.0000   1.0000   0.1976
     0.0041   0.0000   0.0000   0.0000

          k = 0.0000 0.0000 0.1250 (  1133 PWs)   bands (ev):

   -69.5749 -35.4354 -35.4261 -35.4261   9.5033  15.9762  15.9762  16.0689
    17.3275  17.5376  40.1968  41.5067

     occupation numbers 
     1.0000   1.0000   1.0000   1.0000   1.0000   1.0000   1.0000   1.0000
     1.0833   0.3132   0.0000   0.0000

          k = 0.0000-0.0625 0.1875 (  1137 PWs)   bands (ev):

   -69.5675 -35.4735 -35.4400 -35.4286   9.9610  15.8781  15.9603  16.2942
    17.1665  17.5878  38.4655  40.5309

     occupation numbers 
     1.0000   1.0000   1.0000   1.0000   1.0000   1.0000   1.0000   1.0000
     1.0076   0.1356   0.0000   0.0000

          k = 0.0000-0.1250 0.2500 (  1141 PWs)   bands (ev):

   -69.5564 -35.5342 -35.4608 -35.4283  10.6819  15.6992  15.8886  16.6832
    17.0505  17.6342  35.9178  39.1694

     occupation numbers 
     1.0000   1.0000   1.0000   1.0000   1.0000   1.0000   1.0000   1.0000
     1.0002   0.0499   0.0000   0.0000

          k = 0.0000-0.1875 0.3125 (  1138 PWs)   bands (ev):

   -69.5433 -35.6054 -35.4852 -35.4279  11.5798  15.4915  15.7791  17.0584
    17.1728  17.6869  33.1052  37.8980

     occupation numbers 
     1.0000   1.0000   1.0000   1.0000   1.0000   1.0000   1.0000   1.0002
     1.0089   0.0123   0.0000   0.0000

          k = 0.0000-0.2500 0.3750 (  1140 PWs)   bands (ev):

   -69.5301 -35.6761 -35.5096 -35.4273  12.4684  15.2891  15.8011  17.1771
    17.6995  17.7678  30.3430  36.8104

     occupation numbers 
     1.0000   1.0000   1.0000   1.0000   1.0000   1.0000   1.0000   1.0099
     0.0085   0.0008   0.0000   0.0000

          k = 0.0000-0.3125 0.4375 (  1146 PWs)   bands (ev):

   -69.5189 -35.7357 -35.5302 -35.4269  13.0595  15.1216  16.1497  17.3197
    17.9853  18.1809  27.8218  35.9778

     occupation numbers 
     1.0000   1.0000   1.0000   1.0000   1.0000   1.0000   1.0000   1.0827
     0.0000   0.0000   0.0000   0.0000

          k = 0.0000-0.3750 0.5000 (  1145 PWs)   bands (ev):

   -69.5115 -35.7753 -35.5439 -35.4266  13.2783  15.0117  16.6159  17.3680
    18.5114  18.5242  25.8187  35.4556

     occupation numbers 
     1.0000   1.0000   1.0000   1.0000   1.0000   1.0000   1.0000   1.0551
     0.0000   0.0000   0.0000   0.0000

          k = 0.0000 0.5625-0.4375 (  1148 PWs)   bands (ev):

   -69.5088 -35.7892 -35.5488 -35.4265  13.3192  14.9735  16.8059  17.3573
    18.6494  18.8996  24.9611  35.2776

     occupation numbers 
     1.0000   1.0000   1.0000   1.0000   1.0000   1.0000   1.0000   1.0687
     0.0000   0.0000   0.0000   0.0000

          k =-0.0625-0.0625 0.2500 (  1143 PWs)   bands (ev):

   -69.5583 -35.5157 -35.4547 -35.4386  10.5449  15.8302  15.8897  16.5613
    16.9791  17.6643  36.9797  38.4729

     occupation numbers 
     1.0000   1.0000   1.0000   1.0000   1.0000   1.0000   1.0000   1.0000
     1.0000   0.0233   0.0000   0.0000

          k =-0.0625-0.1250 0.3125 (  1142 PWs)   bands (ev):

   -69.5463 -35.5767 -35.4778 -35.4414  11.3513  15.6657  15.7726  16.8966
    17.0033  17.7403  34.6388  36.7718

     occupation numbers 
     1.0000   1.0000   1.0000   1.0000   1.0000   1.0000   1.0000   1.0000
     1.0000   0.0022   0.0000   0.0000

          k =-0.0625-0.1875 0.3750 (  1141 PWs)   bands (ev):

   -69.5333 -35.6435 -35.5042 -35.4416  12.2551  15.4541  15.6661  16.9733
    17.5107  17.8615  31.8771  35.6049

     occupation numbers 
     1.0000   1.0000   1.0000   1.0000   1.0000   1.0000   1.0000   1.0000
     0.4445   0.0000   0.0000   0.0000

          k =-0.0625-0.2500 0.4375 (  1144 PWs)   bands (ev):

   -69.5213 -35.7051 -35.5289 -35.4411  13.0119  15.2731  15.7232  17.1413
    17.8434  18.2823  29.2019  34.6911

     occupation numbers 
     1.0000   1.0000   1.0000   1.0000   1.0000   1.0000   1.0000   1.0038
     0.0000   0.0000   0.0000   0.0000

          k =-0.0625-0.3125 0.5000 (  1143 PWs)   bands (ev):

   -69.5120 -35.7521 -35.5477 -35.4407  13.3880  15.1475  16.0138  17.2604
    18.1288  18.9773  26.8499  34.0314

     occupation numbers 
     1.0000   1.0000   1.0000   1.0000   1.0000   1.0000   1.0000   1.0501
     0.0000   0.0000   0.0000   0.0000

          k =-0.0625 0.6250-0.4375 (  1145 PWs)   bands (ev):

   -69.5070 -35.7774 -35.5580 -35.4404  13.4844  15.0814  16.2717  17.2788
    18.3748  19.6989  25.2395  33.6794

     occupation numbers 
     1.0000   1.0000   1.0000   1.0000   1.0000   1.0000   1.0000   1.0628
     0.0000   0.0000   0.0000   0.0000

          k =-0.1250 0.1250 0.1250 (  1142 PWs)   bands (ev):

   -69.5655 -35.5044 -35.4266 -35.4266  10.1091  15.7683  15.7683  16.5722
    17.4026  17.4026  38.3640  38.3640

     occupation numbers 
     1.0000   1.0000   1.0000   1.0000   1.0000   1.0000   1.0000   1.0000
     0.9742   0.9742   0.0000   0.0000

          k =-0.1250-0.1250 0.3750 (  1134 PWs)   bands (ev):

   -69.5344 -35.6290 -35.5015 -35.4503  12.1811  15.5023  15.6449  16.8661
    17.4636  17.9002  33.2258  34.1494

     occupation numbers 
     1.0000   1.0000   1.0000   1.0000   1.0000   1.0000   1.0000   1.0000
     0.7018   0.0000   0.0000   0.0000

          k =-0.1250-0.1875 0.4375 (  1139 PWs)   bands (ev):

   -69.5225 -35.6811 -35.5307 -35.4538  13.0069  15.2655  15.6012  16.9704
    17.7473  18.4044  30.7961  32.7863

     occupation numbers 
     1.0000   1.0000   1.0000   1.0000   1.0000   1.0000   1.0000   1.0000
     0.0017   0.0000   0.0000   0.0000

          k =-0.1250-0.2500 0.5000 (  1143 PWs)   bands (ev):

   -69.5124 -35.7247 -35.5576 -35.4549  13.5694  15.1514  15.6274  17.1358
    17.9059  19.2593  28.2388  31.9791

     occupation numbers 
     1.0000   1.0000   1.0000   1.0000   1.0000   1.0000   1.0000   1.0032
     0.0000   0.0000   0.0000   0.0000

          k =-0.1250 0.6875-0.4375 (  1152 PWs)   bands (ev):

   -69.5057 -35.7535 -35.5761 -35.4551  13.7636  15.1373  15.7460  17.2352
    18.0970  20.3005  26.0834  31.4704

     occupation numbers 
     1.0000   1.0000   1.0000   1.0000   1.0000   1.0000   1.0000   1.0338
     0.0000   0.0000   0.0000   0.0000

          k =-0.1250 0.6250-0.3750 (  1154 PWs)   bands (ev):

   -69.5033 -35.7635 -35.5828 -35.4551  13.7906  15.1359  15.8166  17.2564
    18.1937  20.9453  25.0561  31.2934

     occupation numbers 
     1.0000   1.0000   1.0000   1.0000   1.0000   1.0000   1.0000   1.0474
     0.0000   0.0000   0.0000   0.0000

          k =-0.1875 0.1875 0.1250 (  1145 PWs)   bands (ev):

   -69.5550 -35.5614 -35.4461 -35.4272  10.8235  15.5631  15.6440  17.0160
    17.3222  17.4679  35.8765  37.1899

     occupation numbers 
     1.0000   1.0000   1.0000   1.0000   1.0000   1.0000   1.0000   1.0000
     1.0830   0.6786   0.0000   0.0000

          k =-0.1875-0.1875 0.5000 (  1143 PWs)   bands (ev):

   -69.5126 -35.7110 -35.5644 -35.4604  13.6776  15.0241  15.5922  17.0725
    17.8348  19.3527  29.6473  30.3316

     occupation numbers 
     1.0000   1.0000   1.0000   1.0000   1.0000   1.0000   1.0000   1.0004
     0.0001   0.0000   0.0000   0.0000

          k =-0.1875 0.7500-0.4375 (  1147 PWs)   bands (ev):

   -69.5049 -35.7299 -35.5964 -35.4633  14.0772  14.9465  15.5340  17.2333
    17.9116  20.5862  27.4297  29.4283

     occupation numbers 
     1.0000   1.0000   1.0000   1.0000   1.0000   1.0000   1.0000   1.0328
     0.0000   0.0000   0.0000   0.0000

          k =-0.1875 0.6875-0.3750 (  1153 PWs)   bands (ev):

   -69.5008 -35.7380 -35.6163 -35.4643  14.1701  15.0693  15.4275  17.3361
    17.9854  21.8770  25.5166  29.0661

     occupation numbers 
     1.0000   1.0000   1.0000   1.0000   1.0000   1.0000   1.0000   1.0821
     0.0000   0.0000   0.0000   0.0000

          k =-0.2500 0.2500 0.1250 (  1138 PWs)   bands (ev):

   -69.5426 -35.6240 -35.4733 -35.4279  11.7198  15.3430  15.5256  17.3057
    17.5329  17.5620  33.1374  36.0943

     occupation numbers 
     1.0000   1.0000   1.0000   1.0000   1.0000   1.0000   1.0000   1.0783
     0.3347   0.2147   0.0000   0.0000

          k =-0.2500 0.1875 0.1875 (  1138 PWs)   bands (ev):

   -69.5443 -35.6162 -35.4588 -35.4379  11.6168  15.3948  15.4179  17.3295
    17.5081  17.5719  34.3826  35.1352

     occupation numbers 
     1.0000   1.0000   1.0000   1.0000   1.0000   1.0000   1.0000   1.0832
     0.4584   0.1815   0.0000   0.0000

          k =-0.2500 0.7500-0.3750 (  1148 PWs)   bands (ev):

   -69.4999 -35.7203 -35.6372 -35.4672  14.4729  14.8303  15.3334  17.4184
    17.8612  22.1847  26.3866  27.6057

     occupation numbers 
     1.0000   1.0000   1.0000   1.0000   1.0000   1.0000   1.0000   0.9176
     0.0000   0.0000   0.0000   0.0000

          k =-0.2500 0.6875-0.3125 (  1153 PWs)   bands (ev):

   -69.4982 -35.7084 -35.6603 -35.4682  14.5802  14.9810  15.0895  17.5380
    17.8050  23.4770  25.0611  27.2070

     occupation numbers 
     1.0000   1.0000   1.0000   1.0000   1.0000   1.0000   1.0000   0.3115
     0.0002   0.0000   0.0000   0.0000

          k =-0.3125 0.3125 0.1250 (  1139 PWs)   bands (ev):

   -69.5302 -35.6841 -35.5025 -35.4286  12.6145  15.1396  15.5624  17.3516
    17.5923  18.1793  30.4009  35.1510

     occupation numbers 
     1.0000   1.0000   1.0000   1.0000   1.0000   1.0000   1.0000   1.0740
     0.1241   0.0000   0.0000   0.0000

          k =-0.3125 0.2500 0.1875 (  1136 PWs)   bands (ev):

   -69.5328 -35.6680 -35.4867 -35.4424  12.5228  15.1857  15.2944  17.3456
    17.5854  18.2291  31.9562  33.8419

     occupation numbers 
     1.0000   1.0000   1.0000   1.0000   1.0000   1.0000   1.0000   1.0781
     0.1418   0.0000   0.0000   0.0000

          k =-0.3750 0.3750 0.1250 (  1148 PWs)   bands (ev):

   -69.5197 -35.7340 -35.5281 -35.4292  13.2002  14.9769  15.9808  17.4205
    17.6417  18.8457  27.8803  34.4234

     occupation numbers 
     1.0000   1.0000   1.0000   1.0000   1.0000   1.0000   1.0000   0.9092
     0.0416   0.0000   0.0000   0.0000

          k =-0.3750 0.3125 0.1875 (  1144 PWs)   bands (ev):

   -69.5222 -35.7112 -35.5189 -35.4446  13.2889  15.0070  15.4039  17.4019
    17.6471  18.9906  29.3311  32.9713

     occupation numbers 
     1.0000   1.0000   1.0000   1.0000   1.0000   1.0000   1.0000   0.9765
[...]
     0.9391   0.0000   0.0000   0.0000

          k =-0.0625-0.1250 0.5625 (  1151 PWs)   bands (ev):

   -69.5041 -35.6862 -35.5775 -35.5226  13.7543  15.0287  16.0953  16.7771
    17.8251  19.3037  30.1546  32.0356

     occupation numbers 
     1.0000   1.0000   1.0000   1.0000   1.0000   1.0000   1.0000   1.0000
     0.0001   0.0000   0.0000   0.0000

          k =-0.0625-0.1875 0.6250 (  1150 PWs)   bands (ev):

   -69.4956 -35.7241 -35.5982 -35.5211  14.0437  14.8665  15.9786  16.9530
    18.1972  20.5281  27.6356  31.3034

     occupation numbers 
     1.0000   1.0000   1.0000   1.0000   1.0000   1.0000   1.0000   1.0000
     0.0000   0.0000   0.0000   0.0000

          k =-0.0625 0.7500-0.3125 (  1156 PWs)   bands (ev):

   -69.4911 -35.7450 -35.6094 -35.5199  14.0908  14.8879  15.8935  17.0117
    18.4339  21.8967  25.6383  30.9057

     occupation numbers 
     1.0000   1.0000   1.0000   1.0000   1.0000   1.0000   1.0000   1.0000
     0.0000   0.0000   0.0000   0.0000

          k =-0.1250-0.1250 0.6250 (  1158 PWs)   bands (ev):

   -69.4950 -35.7089 -35.6116 -35.5266  14.1329  14.7216  16.0374  17.0523
    18.0193  20.5222  29.1033  29.6303

     occupation numbers 
     1.0000   1.0000   1.0000   1.0000   1.0000   1.0000   1.0000   1.0002
     0.0000   0.0000   0.0000   0.0000

          k =-0.1250 0.8125-0.3125 (  1152 PWs)   bands (ev):

   -69.4890 -35.7232 -35.6375 -35.5267  14.2992  14.6076  15.8916  17.2914
    18.1754  22.0855  26.9037  28.8815

     occupation numbers 
     1.0000   1.0000   1.0000   1.0000   1.0000   1.0000   1.0000   1.0709
     0.0000   0.0000   0.0000   0.0000

          k =-0.1250 0.7500-0.2500 (  1157 PWs)   bands (ev):

   -69.4868 -35.7279 -35.6472 -35.5264  14.2863  14.6495  15.8175  17.3710
    18.2463  23.2852  25.4383  28.6767

     occupation numbers 
     1.0000   1.0000   1.0000   1.0000   1.0000   1.0000   1.0000   1.0504
     0.0000   0.0000   0.0000   0.0000

          k =-0.1875 0.8125-0.2500 (  1154 PWs)   bands (ev):

   -69.4853 -35.7092 -35.6741 -35.5277  14.4561  14.4765  15.7530  17.6691
    18.0335  23.8868  25.9426  27.2090

     occupation numbers 
     1.0000   1.0000   1.0000   1.0000   1.0000   1.0000   1.0000   0.0204
     0.0000   0.0000   0.0000   0.0000

          k = 0.6250-0.6250 0.3750 (  1157 PWs)   bands (ev):

   -69.5117 -35.7091 -35.5242 -35.5242  14.6533  14.8014  14.8014  17.6463
    17.6463  21.2238  29.1132  29.1132

     occupation numbers 
     1.0000   1.0000   1.0000   1.0000   1.0000   1.0000   1.0000   0.0371
     0.0371   0.0000   0.0000   0.0000

          k = 0.5625-0.5625 0.3750 (  1155 PWs)   bands (ev):

   -69.5082 -35.6892 -35.5680 -35.5277  14.6502  14.7565  15.1248  17.6676
    17.6985  22.6585  27.0088  28.6999

     occupation numbers 
     1.0000   1.0000   1.0000   1.0000   1.0000   1.0000   1.0000   0.0213
     0.0087   0.0000   0.0000   0.0000

          k = 0.5000-0.5000 0.3750 (  1154 PWs)   bands (ev):

   -69.5069 -35.6733 -35.5922 -35.5289  14.6098  14.7431  15.2801  17.6778
    17.7141  23.8036  25.5750  28.5610

     occupation numbers 
     1.0000   1.0000   1.0000   1.0000   1.0000   1.0000   1.0000   0.0160
     0.0053   0.0000   0.0000   0.0000

          k = 0.5000-0.5625 0.4375 (  1150 PWs)   bands (ev):

   -69.5066 -35.6508 -35.5986 -35.5486  14.6995  14.8803  15.0604  17.7015
    17.7131  24.3289  26.2395  27.2469

     occupation numbers 
     1.0000   1.0000   1.0000   1.0000   1.0000   1.0000   1.0000   0.0080
     0.0055   0.0000   0.0000   0.0000

          k = 0.0000 0.0000 0.5000 (  1136 PWs)   bands (ev):

   -69.5154 -35.6114 -35.5483 -35.5483  13.1297  15.4776  16.3823  16.3823
    17.1598  18.5029  34.2119  34.2119

     occupation numbers 
     1.0000   1.0000   1.0000   1.0000   1.0000   1.0000   1.0000   1.0000
     1.0063   0.0000   0.0000   0.0000

          k = 0.0000-0.0625 0.5625 (  1156 PWs)   bands (ev):

   -69.5039 -35.6521 -35.5743 -35.5594  13.6565  15.0739  16.4480  16.6371
    17.5371  19.1134  31.7528  32.9381

     occupation numbers 
     1.0000   1.0000   1.0000   1.0000   1.0000   1.0000   1.0000   1.0000
     0.3155   0.0000   0.0000   0.0000

          k = 0.0000-0.1250 0.6250 (  1153 PWs)   bands (ev):

   -69.4941 -35.6976 -35.5963 -35.5574  13.9893  14.7541  16.3986  16.8532
    18.0137  20.1786  29.1193  31.9173

     occupation numbers 
     1.0000   1.0000   1.0000   1.0000   1.0000   1.0000   1.0000   1.0000
     0.0000   0.0000   0.0000   0.0000

          k = 0.0000-0.1875 0.6875 (  1151 PWs)   bands (ev):

   -69.4875 -35.7295 -35.6109 -35.5544  14.0976  14.6219  16.3466  16.9468
    18.3847  21.6443  26.7399  31.2413

     occupation numbers 
     1.0000   1.0000   1.0000   1.0000   1.0000   1.0000   1.0000   1.0000
     0.0000   0.0000   0.0000   0.0000

          k = 0.0000 0.7500-0.2500 (  1152 PWs)   bands (ev):

   -69.4852 -35.7408 -35.6160 -35.5532  14.0944  14.6126  16.3265  16.9676
    18.5245  22.7249  25.3646  31.0023

     occupation numbers 
     1.0000   1.0000   1.0000   1.0000   1.0000   1.0000   1.0000   1.0000
     0.0000   0.0000   0.0000   0.0000

          k =-0.0625-0.0625 0.6250 (  1156 PWs)   bands (ev):

   -69.4935 -35.6793 -35.6037 -35.5710  13.9650  14.7211  16.5455  16.9142
    17.8352  20.0747  30.6068  30.8858

     occupation numbers 
     1.0000   1.0000   1.0000   1.0000   1.0000   1.0000   1.0000   1.0000
     0.0001   0.0000   0.0000   0.0000

          k =-0.0625-0.1250 0.6875 (  1151 PWs)   bands (ev):

   -69.4856 -35.7080 -35.6272 -35.5707  14.1214  14.4611  16.4987  17.1727
    18.1664  21.4816  28.2405  29.9811

     occupation numbers 
     1.0000   1.0000   1.0000   1.0000   1.0000   1.0000   1.0000   1.0089
     0.0000   0.0000   0.0000   0.0000

          k =-0.0625 0.8125-0.2500 (  1153 PWs)   bands (ev):

   -69.4813 -35.7251 -35.6396 -35.5692  14.1325  14.3809  16.4529  17.2877
    18.3917  23.1125  26.0746  29.5419

     occupation numbers 
     1.0000   1.0000   1.0000   1.0000   1.0000   1.0000   1.0000   1.0686
     0.0000   0.0000   0.0000   0.0000

          k =-0.1250 0.8750-0.2500 (  1154 PWs)   bands (ev):

   -69.4799 -35.7109 -35.6596 -35.5719  14.1897  14.2564  16.4396  17.5838
    18.2160  23.1465  27.3387  27.9863

     occupation numbers 
     1.0000   1.0000   1.0000   1.0000   1.0000   1.0000   1.0000   0.1462
     0.0000   0.0000   0.0000   0.0000

          k =-0.1250 0.8125-0.1875 (  1160 PWs)   bands (ev):

   -69.4779 -35.7085 -35.6750 -35.5716  14.1666  14.2296  16.4072  17.7719
    18.2049  24.6355  25.8120  27.5865

     occupation numbers 
     1.0000   1.0000   1.0000   1.0000   1.0000   1.0000   1.0000   0.0007
     0.0000   0.0000   0.0000   0.0000

          k = 0.5000-0.5000 0.5000 (  1160 PWs)   bands (ev):

   -69.5063 -35.6006 -35.6006 -35.6006  14.8890  14.8890  14.8890  17.7197
    17.7197  26.0876  26.0876  26.0876

     occupation numbers 
     1.0000   1.0000   1.0000   1.0000   1.0000   1.0000   1.0000   0.0045
     0.0045   0.0000   0.0000   0.0000

          k = 0.0000 0.0000 0.6250 (  1152 PWs)   bands (ev):

   -69.4930 -35.6546 -35.6009 -35.6009  13.9025  14.7250  16.8623  16.8623
    17.6251  19.9320  31.5902  31.5902

     occupation numbers 
     1.0000   1.0000   1.0000   1.0000   1.0000   1.0000   1.0000   1.0000
     0.0619   0.0000   0.0000   0.0000

          k = 0.0000-0.0625 0.6875 (  1149 PWs)   bands (ev):

   -69.4837 -35.6830 -35.6234 -35.6096  14.0062  14.4022  17.0055  17.1294
    17.9685  21.1527  29.6331  30.5042

     occupation numbers 
     1.0000   1.0000   1.0000   1.0000   1.0000   1.0000   1.0000   1.0026
     0.0000   0.0000   0.0000   0.0000

          k = 0.0000-0.1250 0.7500 (  1152 PWs)   bands (ev):

   -69.4776 -35.7105 -35.6384 -35.6067  14.0270  14.1972  17.0122  17.2906
    18.3287  22.7569  27.3358  29.7795

     occupation numbers 
     1.0000   1.0000   1.0000   1.0000   1.0000   1.0000   1.0000   1.0704
     0.0000   0.0000   0.0000   0.0000

          k = 0.0000 0.8125-0.1875 (  1156 PWs)   bands (ev):

   -69.4754 -35.7207 -35.6437 -35.6052  14.0098  14.1457  17.0065  17.3401
    18.4733  24.1097  25.7417  29.5216

     occupation numbers 
     1.0000   1.0000   1.0000   1.0000   1.0000   1.0000   1.0000   1.0808
     0.0000   0.0000   0.0000   0.0000

          k =-0.0625-0.0625 0.7500 (  1154 PWs)   bands (ev):

   -69.4763 -35.6964 -35.6498 -35.6171  13.9844  14.1388  17.1076  17.5212
    18.1826  22.6071  28.6647  28.8887

     occupation numbers 
     1.0000   1.0000   1.0000   1.0000   1.0000   1.0000   1.0013   0.3909
     0.0000   0.0000   0.0000   0.0000

          k =-0.0625 0.8750-0.1875 (  1155 PWs)   bands (ev):

   -69.4722 -35.7071 -35.6657 -35.6160  13.9543  14.0016  17.1098  17.7525
    18.3518  24.3390  26.6832  28.3212

     occupation numbers 
     1.0000   1.0000   1.0000   1.0000   1.0000   1.0000   1.0014   0.0014
     0.0000   0.0000   0.0000   0.0000

          k =-0.1250 0.8750-0.1250 (  1156 PWs)   bands (ev):

   -69.4703 -35.6921 -35.6921 -35.6161  13.9296  13.9296  17.1070  18.1602
    18.1602  25.9974  25.9974  27.0439

     occupation numbers 
     1.0000   1.0000   1.0000   1.0000   1.0000   1.0000   1.0013   0.0000
     0.0000   0.0000   0.0000   0.0000

          k = 0.0000 0.0000 0.7500 (  1144 PWs)   bands (ev):

   -69.4750 -35.6778 -35.6464 -35.6464  13.9109  14.1002  17.4983  17.4983
    18.0254  22.4080  29.3530  29.3530

     occupation numbers 
     1.0000   1.0000   1.0000   1.0000   1.0000   1.0000   0.5109   0.5109
     0.0000   0.0000   0.0000   0.0000

          k = 0.0000-0.0625 0.8125 (  1155 PWs)   bands (ev):

   -69.4691 -35.6946 -35.6617 -35.6506  13.8264  13.8903  17.6581  17.7584
    18.2857  23.9784  27.8488  28.5748

     occupation numbers 
     1.0000   1.0000   1.0000   1.0000   1.0000   1.0000   0.0275   0.0012
     0.0000   0.0000   0.0000   0.0000

          k = 0.0000 0.8750-0.1250 (  1154 PWs)   bands (ev):

   -69.4671 -35.7036 -35.6671 -35.6489  13.7974  13.8132  17.6745  17.8469
    18.4301  25.4668  26.2799  28.2953

     occupation numbers 
     1.0000   1.0000   1.0000   1.0000   1.0000   1.0000   0.0176   0.0000
     0.0000   0.0000   0.0000   0.0000

          k =-0.0625 0.9375-0.1250 (  1156 PWs)   bands (ev):

   -69.4653 -35.6951 -35.6811 -35.6542  13.7383  13.7502  17.7499  18.1275
    18.3488  25.5671  27.1954  27.4547

     occupation numbers 
     1.0000   1.0000   1.0000   1.0000   1.0000   1.0000   0.0016   0.0000
     0.0000   0.0000   0.0000   0.0000

          k = 0.0000 0.0000 0.8750 (  1152 PWs)   bands (ev):

   -69.4635 -35.6864 -35.6773 -35.6773  13.6675  13.6905  18.1156  18.1156
    18.2957  25.3433  27.7495  27.7495

     occupation numbers 
     1.0000   1.0000   1.0000   1.0000   1.0000   1.0000   0.0000   0.0000
     0.0000   0.0000   0.0000   0.0000

          k = 0.0000 0.9375-0.0625 (  1154 PWs)   bands (ev):

   -69.4615 -35.6922 -35.6827 -35.6780  13.6144  13.6163  18.1911  18.2445
    18.4013  26.6244  26.8606  27.4498

     occupation numbers 
     1.0000   1.0000   1.0000   1.0000   1.0000   1.0000   0.0000   0.0000
     0.0000   0.0000   0.0000   0.0000

          k = 0.0000 0.0000-1.0000 (  1144 PWs)   bands (ev):

   -69.4595 -35.6882 -35.6882 -35.6882  13.5482  13.5482  18.3912  18.3912
    18.3912  27.1412  27.1412  27.1412

     occupation numbers 
     1.0000   1.0000   1.0000   1.0000   1.0000   1.0000   0.0000   0.0000
     0.0000   0.0000   0.0000   0.0000

     the Fermi energy is    17.5192 ev

!    total energy              =    -329.22841340 Ry
     total all-electron energy =     -2545.524949 Ry
     estimated scf accuracy    <          1.5E-12 Ry
     smearing contrib. (-TS)   =      -0.00029322 Ry
     internal energy E=F+TS    =    -329.22812018 Ry

     The total energy is F=E-TS. E is the sum of the following terms:
     one-electron contribution =    -112.95536124 Ry
     hartree contribution      =      66.42837359 Ry
     xc contribution           =     -34.65777347 Ry
     ewald contribution        =    -171.88999319 Ry
     one-center paw contrib.   =     -76.15336586 Ry
      -> PAW hartree energy AE =     207.58668281 Ry
      -> PAW hartree energy PS =    -206.72049309 Ry
      -> PAW xc energy AE      =    -111.14415567 Ry
      -> PAW xc energy PS      =      34.12460009 Ry
      -> total E_H with PAW    =      67.29456330 Ry
      -> total E_XC with PAW   =    -111.67732905 Ry

     convergence has been achieved in  17 iterations

     Forces acting on atoms (cartesian axes, Ry/au):

     atom    1 type  1   force =     0.00000000    0.00000000    0.00000000
     The non-local contrib.  to forces
     atom    1 type  1   force =     0.00000000    0.00000000    0.00000000
     The ionic contribution  to forces
     atom    1 type  1   force =    -0.00000000   -0.00000000   -0.00000000
     The local contribution  to forces
     atom    1 type  1   force =     0.00000000    0.00000000    0.00000000
     The core correction contribution to forces
     atom    1 type  1   force =    -0.00000000    0.00000000   -0.00000000
     The Hubbard contrib.    to forces
     atom    1 type  1   force =     0.00000000    0.00000000    0.00000000
     The SCF correction term to forces
     atom    1 type  1   force =     0.00000000   -0.00000000    0.00000000

     Total force =     0.000000     Total SCF correction =     0.000000


     Computing stress (Cartesian axis) and pressure

          total   stress  (Ry/bohr**3)                   (kbar)     P=     -237.97
  -0.00161766   0.00000000  -0.00000000         -237.97        0.00       -0.00
   0.00000000  -0.00161766   0.00000000            0.00     -237.97        0.00
  -0.00000000   0.00000000  -0.00161766           -0.00        0.00     -237.97

     kinetic stress (kbar)  78704.23     -0.00      0.00
                               -0.00  78704.23     -0.00
                                0.00     -0.00  78704.23

     local   stress (kbar)  66079.22     -0.00     -0.00
                               -0.00  66079.22      0.00
                               -0.00      0.00  66079.22

     nonloc. stress (kbar) -61538.17     -0.00     -0.00
                               -0.00 -61538.17      0.00
                               -0.00      0.00 -61538.17

     hartree stress (kbar)  40915.91      0.00      0.00
                                0.00  40915.91     -0.00
                                0.00     -0.00  40915.91

     exc-cor stress (kbar)  -2397.51     -0.00      0.00
                               -0.00  -2397.51      0.00
                                0.00      0.00  -2397.51

     corecor stress (kbar) -16127.68      0.00     -0.00
                                0.00 -16127.68     -0.00
                               -0.00     -0.00 -16127.68

     ewald   stress (kbar)-105873.96      0.00      0.00
                                0.00-105873.96      0.00
                                0.00      0.00-105873.96

     hubbard stress (kbar)      0.00      0.00      0.00
                                0.00      0.00      0.00
                                0.00      0.00      0.00

     DFT-D   stress (kbar)      0.00      0.00      0.00
                                0.00      0.00      0.00
                                0.00      0.00      0.00

     XDM     stress (kbar)      0.00      0.00      0.00
                                0.00      0.00      0.00
                                0.00      0.00      0.00

     dft-nl  stress (kbar)      0.00      0.00      0.00
                                0.00      0.00      0.00
                                0.00      0.00      0.00

     TS-vdW  stress (kbar)      0.00      0.00      0.00
                                0.00      0.00      0.00
                                0.00      0.00      0.00

     MDB     stress (kbar)      0.00      0.00      0.00
                                0.00      0.00      0.00
                                0.00      0.00      0.00

     3D-RISM stress (kbar)      0.00      0.00      0.00
                                0.00      0.00      0.00
                                0.00      0.00      0.00


     Writing all to output data dir ./tmp/fe_bcc_nm_paw.save/ :
     XML data file, charge density, pseudopotentials, collected wavefunctions

     init_run     :      0.50s CPU      0.67s WALL (       1 calls)
     electrons    :      2.11s CPU      3.80s WALL (       1 calls)
     forces       :      0.02s CPU      0.02s WALL (       1 calls)
     stress       :      0.04s CPU      0.04s WALL (       1 calls)

     Called by init_run:
     wfcinit      :      0.02s CPU      0.06s WALL (       1 calls)
     wfcinit:atom :      0.00s CPU      0.00s WALL (      10 calls)
     wfcinit:wfcr :      0.02s CPU      0.02s WALL (      10 calls)
     potinit      :      0.21s CPU      0.30s WALL (       1 calls)
     hinit0       :      0.23s CPU      0.25s WALL (       1 calls)

     Called by electrons:
     c_bands      :      0.81s CPU      0.90s WALL (      18 calls)
     sum_band     :      0.22s CPU      0.26s WALL (      18 calls)
     v_of_rho     :      0.19s CPU      0.25s WALL (      18 calls)
     v_h          :      0.01s CPU      0.01s WALL (      18 calls)
     v_xc         :      0.20s CPU      0.25s WALL (      20 calls)
     newd         :      0.04s CPU      0.04s WALL (      18 calls)
     PAW_pot      :      0.85s CPU      2.25s WALL (      18 calls)
     mix_rho      :      0.01s CPU      0.02s WALL (      18 calls)

     Called by c_bands:
     init_us_2    :      0.01s CPU      0.01s WALL (     390 calls)
     cegterg      :      0.71s CPU      0.78s WALL (     180 calls)

     Called by sum_band:
     sum_band:wei :      0.01s CPU      0.02s WALL (      18 calls)
     sum_band:loo :      0.14s CPU      0.15s WALL (      18 calls)
     sum_band:buf :      0.00s CPU      0.00s WALL (     180 calls)
     sum_band:ini :      0.01s CPU      0.01s WALL (     180 calls)
     sum_band:cal :      0.01s CPU      0.01s WALL (     180 calls)
     sum_band:bec :      0.00s CPU      0.00s WALL (     180 calls)
     addusdens    :      0.03s CPU      0.03s WALL (      18 calls)
                                        0.00s GPU  (      18 calls)
     addusd:skk   :      0.00s CPU      0.00s WALL (      18 calls)
                                        0.00s GPU  (      18 calls)

     Called by *egterg:
     cdiaghg      :      0.09s CPU      0.10s WALL (     681 calls)
     cegterg:over :      0.02s CPU      0.03s WALL (     511 calls)
     cegterg:upda :      0.01s CPU      0.01s WALL (     511 calls)
     cegterg:last :      0.01s CPU      0.01s WALL (     351 calls)
     h_psi        :      0.56s CPU      0.62s WALL (     701 calls)
     s_psi        :      0.01s CPU      0.01s WALL (     701 calls)
     g_psi        :      0.00s CPU      0.00s WALL (     511 calls)

     Called by h_psi:
     h_psi:calbec :      0.02s CPU      0.02s WALL (     701 calls)
     vloc_psi     :      0.53s CPU      0.59s WALL (     701 calls)
     add_vuspsi   :      0.01s CPU      0.01s WALL (     701 calls)

     General routines
     calbec       :      0.03s CPU      0.03s WALL (     931 calls)
     fft          :      0.28s CPU      0.36s WALL (     258 calls)
     ffts         :      0.14s CPU      0.15s WALL (      36 calls)
     fftw         :      0.54s CPU      0.59s WALL (   13334 calls)
     interpolate  :      0.15s CPU      0.17s WALL (      18 calls)

     Parallel routines

     PAW routines
     PAW_pot      :      0.85s CPU      2.25s WALL (      18 calls)
     PAW_symme    :      0.01s CPU      0.01s WALL (      36 calls)

     PWSCF        :      2.83s CPU      5.73s WALL


   This run was terminated on:   6:49:53  13May2025            

=------------------------------------------------------------------------------=
   JOB DONE.
=------------------------------------------------------------------------------=
