
     Program PWSCF v.7.3.1 starts on 24May2025 at 11:18:35 

     This program is part of the open-source Quantum ESPRESSO suite
     for quantum simulation of materials; please cite
         "P. Giannozzi et al., J. Phys.:Condens. Matter 21 395502 (2009);
         "P. Giannozzi et al., J. Phys.:Condens. Matter 29 465901 (2017);
         "P. Giannozzi et al., J. Chem. Phys. 152 154105 (2020);
          URL http://www.quantum-espresso.org", 
     in publications or presentations arising from this work. More details at
     http://www.quantum-espresso.org/quote

     Parallel version (MPI & OpenMP), running on      32 processor cores
     Number of MPI processes:                32
     Threads/MPI process:                     1

     MPI processes distributed on     1 nodes
     436518 MiB available memory on the printing compute node when the environment starts

     Waiting for input...
     Reading input from standard input

     Current dimensions of program PWSCF are:
     Max number of different atomic species (ntypx) = 10
     Max number of k-points (npk) =  40000
     Max angular momentum in pseudopotentials (lmaxx) =  4
     file Fe.pbe-spn-kjpaw_psl.1.0.0.UPF: wavefunction(s)  3P 3D renormalized
     Found identity + (  0.2500  0.2500  0.2500) symmetry
     This is a supercell, fractional translations are disabled
     Message from routine setup:
     using ibrav=0 with symmetry is DISCOURAGED, use correct ibrav instead

     K-points division:     npool     =       4
     R & G space division:  proc/nbgrp/npool/nimage =       8
     Subspace diagonalization in iterative solution of the eigenvalue problem:
     one sub-group per band group will be used
     ELPA distributed-memory algorithm (size of sub-group:  2*  2 procs)


     Parallelization info
     --------------------
     sticks:   dense  smooth     PW     G-vecs:    dense   smooth      PW
     Min        1262     420    117                95454    18370    2670
     Max        1263     421    119                95459    18371    2671
     Sum       10097    3365    941               763649   146965   21367

     Using Slab Decomposition



     bravais-lattice index     =            0
     lattice parameter (alat)  =      10.8398  a.u.
     unit-cell volume          =    1273.7068 (a.u.)^3
     number of atoms/cell      =           16
     number of atomic types    =            1
     number of electrons       =       256.00
     number of Kohn-Sham states=          154
     kinetic-energy cutoff     =      90.0000  Ry
     charge density cutoff     =    1080.0000  Ry
     scf convergence threshold =      1.0E-08
     mixing beta               =       0.2000
     number of iterations used =            8  plain     mixing
     Exchange-correlation= SLA  PW   PBX  PBC
                           (   1   4   3   4   0   0   0)

     celldm(1)=  10.839847  celldm(2)=   0.000000  celldm(3)=   0.000000
     celldm(4)=   0.000000  celldm(5)=   0.000000  celldm(6)=   0.000000

     crystal axes: (cart. coord. in units of alat)
               a(1) = (   1.000000   0.000000   0.000000 )  
               a(2) = (   0.000000   1.000000   0.000000 )  
               a(3) = (   0.000000   0.000000   1.000000 )  

     reciprocal axes: (cart. coord. in units 2 pi/alat)
               b(1) = (  1.000000  0.000000  0.000000 )  
               b(2) = (  0.000000  1.000000  0.000000 )  
               b(3) = (  0.000000  0.000000  1.000000 )  


     PseudoPot. # 1 for Fe read from file:
     ./pseudo/Fe.pbe-spn-kjpaw_psl.1.0.0.UPF
     MD5 check sum: fc81f059e5c5069939230b1155715ae8
     Pseudo is Projector augmented-wave + core cor, Zval = 16.0
     Generated using &quot;atomic&quot; code by A. Dal Corso  v.6.3
     Shape of augmentation charge: PSQ
     Using radial grid of 1191 points,  6 beta functions with: 
                l(1) =   0
                l(2) =   0
                l(3) =   1
                l(4) =   1
                l(5) =   2
                l(6) =   2
     Q(r) pseudized with 0 coefficients 


     atomic species   valence    mass     pseudopotential
     Fe               16.00    55.84500     Fe( 1.00)

     Starting magnetic structure 
     atomic species   magnetization
     Fe              0.400

     48 Sym. Ops., with inversion, found


                                    s                        frac. trans.

      isym =  1     identity                                     

 cryst.   s( 1) = (     1          0          0      )
                  (     0          1          0      )
                  (     0          0          1      )

 cart.    s( 1) = (  1.0000000  0.0000000  0.0000000 )
                  (  0.0000000  1.0000000  0.0000000 )
                  (  0.0000000  0.0000000  1.0000000 )


      isym =  2     180 deg rotation - cart. axis [0,0,1]        

 cryst.   s( 2) = (    -1          0          0      )
                  (     0         -1          0      )
                  (     0          0          1      )

 cart.    s( 2) = ( -1.0000000  0.0000000  0.0000000 )
                  (  0.0000000 -1.0000000  0.0000000 )
                  (  0.0000000  0.0000000  1.0000000 )


      isym =  3     180 deg rotation - cart. axis [0,1,0]        

 cryst.   s( 3) = (    -1          0          0      )
                  (     0          1          0      )
                  (     0          0         -1      )

 cart.    s( 3) = ( -1.0000000  0.0000000  0.0000000 )
                  (  0.0000000  1.0000000  0.0000000 )
                  (  0.0000000  0.0000000 -1.0000000 )


      isym =  4     180 deg rotation - cart. axis [1,0,0]        

 cryst.   s( 4) = (     1          0          0      )
                  (     0         -1          0      )
                  (     0          0         -1      )

 cart.    s( 4) = (  1.0000000  0.0000000  0.0000000 )
                  (  0.0000000 -1.0000000  0.0000000 )
                  (  0.0000000  0.0000000 -1.0000000 )


      isym =  5     180 deg rotation - cart. axis [1,1,0]        

 cryst.   s( 5) = (     0          1          0      )
                  (     1          0          0      )
                  (     0          0         -1      )

 cart.    s( 5) = (  0.0000000  1.0000000  0.0000000 )
                  (  1.0000000  0.0000000  0.0000000 )
                  (  0.0000000  0.0000000 -1.0000000 )


      isym =  6     180 deg rotation - cart. axis [1,-1,0]       

 cryst.   s( 6) = (     0         -1          0      )
                  (    -1          0          0      )
                  (     0          0         -1      )

 cart.    s( 6) = (  0.0000000 -1.0000000  0.0000000 )
                  ( -1.0000000  0.0000000  0.0000000 )
                  (  0.0000000  0.0000000 -1.0000000 )


      isym =  7      90 deg rotation - cart. axis [0,0,-1]       

 cryst.   s( 7) = (     0         -1          0      )
                  (     1          0          0      )
                  (     0          0          1      )

 cart.    s( 7) = (  0.0000000  1.0000000  0.0000000 )
                  ( -1.0000000  0.0000000  0.0000000 )
                  (  0.0000000  0.0000000  1.0000000 )


      isym =  8      90 deg rotation - cart. axis [0,0,1]        

 cryst.   s( 8) = (     0          1          0      )
                  (    -1          0          0      )
                  (     0          0          1      )

 cart.    s( 8) = (  0.0000000 -1.0000000  0.0000000 )
                  (  1.0000000  0.0000000  0.0000000 )
                  (  0.0000000  0.0000000  1.0000000 )


      isym =  9     180 deg rotation - cart. axis [1,0,1]        

 cryst.   s( 9) = (     0          0          1      )
                  (     0         -1          0      )
                  (     1          0          0      )

 cart.    s( 9) = (  0.0000000  0.0000000  1.0000000 )
                  (  0.0000000 -1.0000000  0.0000000 )
                  (  1.0000000  0.0000000  0.0000000 )


      isym = 10     180 deg rotation - cart. axis [-1,0,1]       

 cryst.   s(10) = (     0          0         -1      )
                  (     0         -1          0      )
                  (    -1          0          0      )

 cart.    s(10) = (  0.0000000  0.0000000 -1.0000000 )
                  (  0.0000000 -1.0000000  0.0000000 )
                  ( -1.0000000  0.0000000  0.0000000 )


      isym = 11      90 deg rotation - cart. axis [0,1,0]        

 cryst.   s(11) = (     0          0         -1      )
                  (     0          1          0      )
                  (     1          0          0      )

 cart.    s(11) = (  0.0000000  0.0000000  1.0000000 )
                  (  0.0000000  1.0000000  0.0000000 )
                  ( -1.0000000  0.0000000  0.0000000 )


      isym = 12      90 deg rotation - cart. axis [0,-1,0]       

 cryst.   s(12) = (     0          0          1      )
                  (     0          1          0      )
                  (    -1          0          0      )

 cart.    s(12) = (  0.0000000  0.0000000 -1.0000000 )
                  (  0.0000000  1.0000000  0.0000000 )
                  (  1.0000000  0.0000000  0.0000000 )


      isym = 13     180 deg rotation - cart. axis [0,1,1]        

 cryst.   s(13) = (    -1          0          0      )
                  (     0          0          1      )
                  (     0          1          0      )

 cart.    s(13) = ( -1.0000000  0.0000000  0.0000000 )
                  (  0.0000000  0.0000000  1.0000000 )
                  (  0.0000000  1.0000000  0.0000000 )


      isym = 14     180 deg rotation - cart. axis [0,1,-1]       

 cryst.   s(14) = (    -1          0          0      )
                  (     0          0         -1      )
                  (     0         -1          0      )

 cart.    s(14) = ( -1.0000000  0.0000000  0.0000000 )
                  (  0.0000000  0.0000000 -1.0000000 )
                  (  0.0000000 -1.0000000  0.0000000 )


      isym = 15      90 deg rotation - cart. axis [-1,0,0]       

 cryst.   s(15) = (     1          0          0      )
                  (     0          0         -1      )
                  (     0          1          0      )

 cart.    s(15) = (  1.0000000  0.0000000  0.0000000 )
                  (  0.0000000  0.0000000  1.0000000 )
                  (  0.0000000 -1.0000000  0.0000000 )


      isym = 16      90 deg rotation - cart. axis [1,0,0]        

 cryst.   s(16) = (     1          0          0      )
                  (     0          0          1      )
                  (     0         -1          0      )

 cart.    s(16) = (  1.0000000  0.0000000  0.0000000 )
                  (  0.0000000  0.0000000 -1.0000000 )
                  (  0.0000000  1.0000000  0.0000000 )


      isym = 17     120 deg rotation - cart. axis [-1,-1,-1]     

 cryst.   s(17) = (     0          0          1      )
                  (     1          0          0      )
                  (     0          1          0      )

 cart.    s(17) = (  0.0000000  1.0000000  0.0000000 )
                  (  0.0000000  0.0000000  1.0000000 )
                  (  1.0000000  0.0000000  0.0000000 )


      isym = 18     120 deg rotation - cart. axis [-1,1,1]       

 cryst.   s(18) = (     0          0         -1      )
                  (    -1          0          0      )
                  (     0          1          0      )

 cart.    s(18) = (  0.0000000 -1.0000000  0.0000000 )
                  (  0.0000000  0.0000000  1.0000000 )
                  ( -1.0000000  0.0000000  0.0000000 )


      isym = 19     120 deg rotation - cart. axis [1,1,-1]       

 cryst.   s(19) = (     0          0         -1      )
                  (     1          0          0      )
                  (     0         -1          0      )

 cart.    s(19) = (  0.0000000  1.0000000  0.0000000 )
                  (  0.0000000  0.0000000 -1.0000000 )
                  ( -1.0000000  0.0000000  0.0000000 )


      isym = 20     120 deg rotation - cart. axis [1,-1,1]       

 cryst.   s(20) = (     0          0          1      )
                  (    -1          0          0      )
                  (     0         -1          0      )

 cart.    s(20) = (  0.0000000 -1.0000000  0.0000000 )
                  (  0.0000000  0.0000000 -1.0000000 )
                  (  1.0000000  0.0000000  0.0000000 )


      isym = 21     120 deg rotation - cart. axis [1,1,1]        

 cryst.   s(21) = (     0          1          0      )
                  (     0          0          1      )
                  (     1          0          0      )

 cart.    s(21) = (  0.0000000  0.0000000  1.0000000 )
                  (  1.0000000  0.0000000  0.0000000 )
                  (  0.0000000  1.0000000  0.0000000 )


      isym = 22     120 deg rotation - cart. axis [-1,1,-1]      

 cryst.   s(22) = (     0         -1          0      )
                  (     0          0         -1      )
                  (     1          0          0      )

 cart.    s(22) = (  0.0000000  0.0000000  1.0000000 )
                  ( -1.0000000  0.0000000  0.0000000 )
                  (  0.0000000 -1.0000000  0.0000000 )


      isym = 23     120 deg rotation - cart. axis [1,-1,-1]      

 cryst.   s(23) = (     0         -1          0      )
                  (     0          0          1      )
                  (    -1          0          0      )

 cart.    s(23) = (  0.0000000  0.0000000 -1.0000000 )
                  ( -1.0000000  0.0000000  0.0000000 )
                  (  0.0000000  1.0000000  0.0000000 )


      isym = 24     120 deg rotation - cart. axis [-1,-1,1]      

 cryst.   s(24) = (     0          1          0      )
                  (     0          0         -1      )
                  (    -1          0          0      )

 cart.    s(24) = (  0.0000000  0.0000000 -1.0000000 )
                  (  1.0000000  0.0000000  0.0000000 )
                  (  0.0000000 -1.0000000  0.0000000 )


      isym = 25     inversion                                    

 cryst.   s(25) = (    -1          0          0      )
                  (     0         -1          0      )
                  (     0          0         -1      )

 cart.    s(25) = ( -1.0000000  0.0000000  0.0000000 )
                  (  0.0000000 -1.0000000  0.0000000 )
                  (  0.0000000  0.0000000 -1.0000000 )


      isym = 26     inv. 180 deg rotation - cart. axis [0,0,1]   

 cryst.   s(26) = (     1          0          0      )
                  (     0          1          0      )
                  (     0          0         -1      )

 cart.    s(26) = (  1.0000000  0.0000000  0.0000000 )
                  (  0.0000000  1.0000000  0.0000000 )
                  (  0.0000000  0.0000000 -1.0000000 )


      isym = 27     inv. 180 deg rotation - cart. axis [0,1,0]   

 cryst.   s(27) = (     1          0          0      )
                  (     0         -1          0      )
                  (     0          0          1      )

 cart.    s(27) = (  1.0000000  0.0000000  0.0000000 )
                  (  0.0000000 -1.0000000  0.0000000 )
                  (  0.0000000  0.0000000  1.0000000 )


      isym = 28     inv. 180 deg rotation - cart. axis [1,0,0]   

 cryst.   s(28) = (    -1          0          0      )
                  (     0          1          0      )
                  (     0          0          1      )

 cart.    s(28) = ( -1.0000000  0.0000000  0.0000000 )
                  (  0.0000000  1.0000000  0.0000000 )
                  (  0.0000000  0.0000000  1.0000000 )


      isym = 29     inv. 180 deg rotation - cart. axis [1,1,0]   

 cryst.   s(29) = (     0         -1          0      )
                  (    -1          0          0      )
                  (     0          0          1      )

 cart.    s(29) = (  0.0000000 -1.0000000  0.0000000 )
                  ( -1.0000000  0.0000000  0.0000000 )
                  (  0.0000000  0.0000000  1.0000000 )


      isym = 30     inv. 180 deg rotation - cart. axis [1,-1,0]  

 cryst.   s(30) = (     0          1          0      )
                  (     1          0          0      )
                  (     0          0          1      )

 cart.    s(30) = (  0.0000000  1.0000000  0.0000000 )
                  (  1.0000000  0.0000000  0.0000000 )
                  (  0.0000000  0.0000000  1.0000000 )


      isym = 31     inv.  90 deg rotation - cart. axis [0,0,-1]  

 cryst.   s(31) = (     0          1          0      )
                  (    -1          0          0      )
                  (     0          0         -1      )

 cart.    s(31) = (  0.0000000 -1.0000000  0.0000000 )
                  (  1.0000000  0.0000000  0.0000000 )
                  (  0.0000000  0.0000000 -1.0000000 )


      isym = 32     inv.  90 deg rotation - cart. axis [0,0,1]   

 cryst.   s(32) = (     0         -1          0      )
                  (     1          0          0      )
                  (     0          0         -1      )

 cart.    s(32) = (  0.0000000  1.0000000  0.0000000 )
                  ( -1.0000000  0.0000000  0.0000000 )
                  (  0.0000000  0.0000000 -1.0000000 )


      isym = 33     inv. 180 deg rotation - cart. axis [1,0,1]   

 cryst.   s(33) = (     0          0         -1      )
                  (     0          1          0      )
                  (    -1          0          0      )

 cart.    s(33) = (  0.0000000  0.0000000 -1.0000000 )
                  (  0.0000000  1.0000000  0.0000000 )
                  ( -1.0000000  0.0000000  0.0000000 )


      isym = 34     inv. 180 deg rotation - cart. axis [-1,0,1]  

 cryst.   s(34) = (     0          0          1      )
                  (     0          1          0      )
                  (     1          0          0      )

 cart.    s(34) = (  0.0000000  0.0000000  1.0000000 )
                  (  0.0000000  1.0000000  0.0000000 )
                  (  1.0000000  0.0000000  0.0000000 )


      isym = 35     inv.  90 deg rotation - cart. axis [0,1,0]   

 cryst.   s(35) = (     0          0          1      )
                  (     0         -1          0      )
                  (    -1          0          0      )

 cart.    s(35) = (  0.0000000  0.0000000 -1.0000000 )
                  (  0.0000000 -1.0000000  0.0000000 )
                  (  1.0000000  0.0000000  0.0000000 )


      isym = 36     inv.  90 deg rotation - cart. axis [0,-1,0]  

 cryst.   s(36) = (     0          0         -1      )
                  (     0         -1          0      )
                  (     1          0          0      )

 cart.    s(36) = (  0.0000000  0.0000000  1.0000000 )
                  (  0.0000000 -1.0000000  0.0000000 )
                  ( -1.0000000  0.0000000  0.0000000 )


      isym = 37     inv. 180 deg rotation - cart. axis [0,1,1]   

 cryst.   s(37) = (     1          0          0      )
                  (     0          0         -1      )
                  (     0         -1          0      )

 cart.    s(37) = (  1.0000000  0.0000000  0.0000000 )
                  (  0.0000000  0.0000000 -1.0000000 )
                  (  0.0000000 -1.0000000  0.0000000 )


      isym = 38     inv. 180 deg rotation - cart. axis [0,1,-1]  

 cryst.   s(38) = (     1          0          0      )
                  (     0          0          1      )
                  (     0          1          0      )

 cart.    s(38) = (  1.0000000  0.0000000  0.0000000 )
                  (  0.0000000  0.0000000  1.0000000 )
                  (  0.0000000  1.0000000  0.0000000 )


      isym = 39     inv.  90 deg rotation - cart. axis [-1,0,0]  

 cryst.   s(39) = (    -1          0          0      )
                  (     0          0          1      )
                  (     0         -1          0      )

 cart.    s(39) = ( -1.0000000  0.0000000  0.0000000 )
                  (  0.0000000  0.0000000 -1.0000000 )
                  (  0.0000000  1.0000000  0.0000000 )


      isym = 40     inv.  90 deg rotation - cart. axis [1,0,0]   

 cryst.   s(40) = (    -1          0          0      )
                  (     0          0         -1      )
                  (     0          1          0      )

 cart.    s(40) = ( -1.0000000  0.0000000  0.0000000 )
                  (  0.0000000  0.0000000  1.0000000 )
                  (  0.0000000 -1.0000000  0.0000000 )


      isym = 41     inv. 120 deg rotation - cart. axis [-1,-1,-1]

 cryst.   s(41) = (     0          0         -1      )
                  (    -1          0          0      )
                  (     0         -1          0      )

 cart.    s(41) = (  0.0000000 -1.0000000  0.0000000 )
                  (  0.0000000  0.0000000 -1.0000000 )
                  ( -1.0000000  0.0000000  0.0000000 )


      isym = 42     inv. 120 deg rotation - cart. axis [-1,1,1]  

 cryst.   s(42) = (     0          0          1      )
                  (     1          0          0      )
                  (     0         -1          0      )

 cart.    s(42) = (  0.0000000  1.0000000  0.0000000 )
                  (  0.0000000  0.0000000 -1.0000000 )
                  (  1.0000000  0.0000000  0.0000000 )


      isym = 43     inv. 120 deg rotation - cart. axis [1,1,-1]  

 cryst.   s(43) = (     0          0          1      )
                  (    -1          0          0      )
                  (     0          1          0      )

 cart.    s(43) = (  0.0000000 -1.0000000  0.0000000 )
                  (  0.0000000  0.0000000  1.0000000 )
                  (  1.0000000  0.0000000  0.0000000 )


      isym = 44     inv. 120 deg rotation - cart. axis [1,-1,1]  

 cryst.   s(44) = (     0          0         -1      )
                  (     1          0          0      )
                  (     0          1          0      )

 cart.    s(44) = (  0.0000000  1.0000000  0.0000000 )
                  (  0.0000000  0.0000000  1.0000000 )
                  ( -1.0000000  0.0000000  0.0000000 )


      isym = 45     inv. 120 deg rotation - cart. axis [1,1,1]   

 cryst.   s(45) = (     0         -1          0      )
                  (     0          0         -1      )
                  (    -1          0          0      )

 cart.    s(45) = (  0.0000000  0.0000000 -1.0000000 )
                  ( -1.0000000  0.0000000  0.0000000 )
                  (  0.0000000 -1.0000000  0.0000000 )


      isym = 46     inv. 120 deg rotation - cart. axis [-1,1,-1] 

 cryst.   s(46) = (     0          1          0      )
                  (     0          0          1      )
                  (    -1          0          0      )

 cart.    s(46) = (  0.0000000  0.0000000 -1.0000000 )
                  (  1.0000000  0.0000000  0.0000000 )
                  (  0.0000000  1.0000000  0.0000000 )


      isym = 47     inv. 120 deg rotation - cart. axis [1,-1,-1] 

 cryst.   s(47) = (     0          1          0      )
                  (     0          0         -1      )
                  (     1          0          0      )

 cart.    s(47) = (  0.0000000  0.0000000  1.0000000 )
                  (  1.0000000  0.0000000  0.0000000 )
                  (  0.0000000 -1.0000000  0.0000000 )


      isym = 48     inv. 120 deg rotation - cart. axis [-1,-1,1] 

 cryst.   s(48) = (     0         -1          0      )
                  (     0          0          1      )
                  (     1          0          0      )

 cart.    s(48) = (  0.0000000  0.0000000  1.0000000 )
                  ( -1.0000000  0.0000000  0.0000000 )
                  (  0.0000000  1.0000000  0.0000000 )


   Cartesian axes

     site n.     atom                  positions (alat units)
         1        Fe     tau(   1) = (   0.0000000   0.0000000   0.0000000  )
         2        Fe     tau(   2) = (   0.2500000   0.2500000   0.2500000  )
         3        Fe     tau(   3) = (   0.0000000   0.0000000   0.5000000  )
         4        Fe     tau(   4) = (   0.2500000   0.2500000   0.7500000  )
         5        Fe     tau(   5) = (   0.0000000   0.5000000   0.0000000  )
         6        Fe     tau(   6) = (   0.2500000   0.7500000   0.2500000  )
         7        Fe     tau(   7) = (   0.0000000   0.5000000   0.5000000  )
         8        Fe     tau(   8) = (   0.2500000   0.7500000   0.7500000  )
         9        Fe     tau(   9) = (   0.5000000   0.0000000   0.0000000  )
        10        Fe     tau(  10) = (   0.7500000   0.2500000   0.2500000  )
        11        Fe     tau(  11) = (   0.5000000   0.0000000   0.5000000  )
        12        Fe     tau(  12) = (   0.7500000   0.2500000   0.7500000  )
        13        Fe     tau(  13) = (   0.5000000   0.5000000   0.0000000  )
        14        Fe     tau(  14) = (   0.7500000   0.7500000   0.2500000  )
        15        Fe     tau(  15) = (   0.5000000   0.5000000   0.5000000  )
        16        Fe     tau(  16) = (   0.7500000   0.7500000   0.7500000  )

   Crystallographic axes

     site n.     atom                  positions (cryst. coord.)
         1        Fe     tau(   1) = (  0.0000000  0.0000000  0.0000000  )
         2        Fe     tau(   2) = (  0.2500000  0.2500000  0.2500000  )
         3        Fe     tau(   3) = (  0.0000000  0.0000000  0.5000000  )
         4        Fe     tau(   4) = (  0.2500000  0.2500000  0.7500000  )
         5        Fe     tau(   5) = (  0.0000000  0.5000000  0.0000000  )
         6        Fe     tau(   6) = (  0.2500000  0.7500000  0.2500000  )
         7        Fe     tau(   7) = (  0.0000000  0.5000000  0.5000000  )
         8        Fe     tau(   8) = (  0.2500000  0.7500000  0.7500000  )
         9        Fe     tau(   9) = (  0.5000000  0.0000000  0.0000000  )
        10        Fe     tau(  10) = (  0.7500000  0.2500000  0.2500000  )
        11        Fe     tau(  11) = (  0.5000000  0.0000000  0.5000000  )
        12        Fe     tau(  12) = (  0.7500000  0.2500000  0.7500000  )
        13        Fe     tau(  13) = (  0.5000000  0.5000000  0.0000000  )
        14        Fe     tau(  14) = (  0.7500000  0.7500000  0.2500000  )
        15        Fe     tau(  15) = (  0.5000000  0.5000000  0.5000000  )
        16        Fe     tau(  16) = (  0.7500000  0.7500000  0.7500000  )

     number of k points=    56  Marzari-Vanderbilt smearing, width (Ry)=  0.0100
                       cart. coord. in units 2pi/alat
        k(    1) = (   0.0000000   0.0000000   0.0000000), wk =   0.0010000
        k(    2) = (   0.0000000   0.0000000   0.1000000), wk =   0.0060000
        k(    3) = (   0.0000000   0.0000000   0.2000000), wk =   0.0060000
        k(    4) = (   0.0000000   0.0000000   0.3000000), wk =   0.0060000
        k(    5) = (   0.0000000   0.0000000   0.4000000), wk =   0.0060000
        k(    6) = (   0.0000000   0.0000000  -0.5000000), wk =   0.0030000
        k(    7) = (   0.0000000   0.1000000   0.1000000), wk =   0.0120000
        k(    8) = (   0.0000000   0.1000000   0.2000000), wk =   0.0240000
        k(    9) = (   0.0000000   0.1000000   0.3000000), wk =   0.0240000
        k(   10) = (   0.0000000   0.1000000   0.4000000), wk =   0.0240000
        k(   11) = (   0.0000000   0.1000000  -0.5000000), wk =   0.0120000
        k(   12) = (   0.0000000   0.2000000   0.2000000), wk =   0.0120000
        k(   13) = (   0.0000000   0.2000000   0.3000000), wk =   0.0240000
        k(   14) = (   0.0000000   0.2000000   0.4000000), wk =   0.0240000
        k(   15) = (   0.0000000   0.2000000  -0.5000000), wk =   0.0120000
        k(   16) = (   0.0000000   0.3000000   0.3000000), wk =   0.0120000
        k(   17) = (   0.0000000   0.3000000   0.4000000), wk =   0.0240000
        k(   18) = (   0.0000000   0.3000000  -0.5000000), wk =   0.0120000
        k(   19) = (   0.0000000   0.4000000   0.4000000), wk =   0.0120000
        k(   20) = (   0.0000000   0.4000000  -0.5000000), wk =   0.0120000
        k(   21) = (   0.0000000  -0.5000000  -0.5000000), wk =   0.0030000
        k(   22) = (   0.1000000   0.1000000   0.1000000), wk =   0.0080000
        k(   23) = (   0.1000000   0.1000000   0.2000000), wk =   0.0240000
        k(   24) = (   0.1000000   0.1000000   0.3000000), wk =   0.0240000
        k(   25) = (   0.1000000   0.1000000   0.4000000), wk =   0.0240000
        k(   26) = (   0.1000000   0.1000000  -0.5000000), wk =   0.0120000
        k(   27) = (   0.1000000   0.2000000   0.2000000), wk =   0.0240000
        k(   28) = (   0.1000000   0.2000000   0.3000000), wk =   0.0480000
        k(   29) = (   0.1000000   0.2000000   0.4000000), wk =   0.0480000
        k(   30) = (   0.1000000   0.2000000  -0.5000000), wk =   0.0240000
        k(   31) = (   0.1000000   0.3000000   0.3000000), wk =   0.0240000
        k(   32) = (   0.1000000   0.3000000   0.4000000), wk =   0.0480000
        k(   33) = (   0.1000000   0.3000000  -0.5000000), wk =   0.0240000
        k(   34) = (   0.1000000   0.4000000   0.4000000), wk =   0.0240000
        k(   35) = (   0.1000000   0.4000000  -0.5000000), wk =   0.0240000
        k(   36) = (   0.1000000  -0.5000000  -0.5000000), wk =   0.0060000
        k(   37) = (   0.2000000   0.2000000   0.2000000), wk =   0.0080000
        k(   38) = (   0.2000000   0.2000000   0.3000000), wk =   0.0240000
        k(   39) = (   0.2000000   0.2000000   0.4000000), wk =   0.0240000
        k(   40) = (   0.2000000   0.2000000  -0.5000000), wk =   0.0120000
        k(   41) = (   0.2000000   0.3000000   0.3000000), wk =   0.0240000
        k(   42) = (   0.2000000   0.3000000   0.4000000), wk =   0.0480000
        k(   43) = (   0.2000000   0.3000000  -0.5000000), wk =   0.0240000
        k(   44) = (   0.2000000   0.4000000   0.4000000), wk =   0.0240000
        k(   45) = (   0.2000000   0.4000000  -0.5000000), wk =   0.0240000
        k(   46) = (   0.2000000  -0.5000000  -0.5000000), wk =   0.0060000
        k(   47) = (   0.3000000   0.3000000   0.3000000), wk =   0.0080000
        k(   48) = (   0.3000000   0.3000000   0.4000000), wk =   0.0240000
        k(   49) = (   0.3000000   0.3000000  -0.5000000), wk =   0.0120000
        k(   50) = (   0.3000000   0.4000000   0.4000000), wk =   0.0240000
        k(   51) = (   0.3000000   0.4000000  -0.5000000), wk =   0.0240000
        k(   52) = (   0.3000000  -0.5000000  -0.5000000), wk =   0.0060000
        k(   53) = (   0.4000000   0.4000000   0.4000000), wk =   0.0080000
        k(   54) = (   0.4000000   0.4000000  -0.5000000), wk =   0.0120000
        k(   55) = (   0.4000000  -0.5000000  -0.5000000), wk =   0.0060000
        k(   56) = (  -0.5000000  -0.5000000  -0.5000000), wk =   0.0010000

                       cryst. coord.
        k(    1) = (   0.0000000   0.0000000   0.0000000), wk =   0.0010000
        k(    2) = (   0.0000000   0.0000000   0.1000000), wk =   0.0060000
        k(    3) = (   0.0000000   0.0000000   0.2000000), wk =   0.0060000
        k(    4) = (   0.0000000   0.0000000   0.3000000), wk =   0.0060000
        k(    5) = (   0.0000000   0.0000000   0.4000000), wk =   0.0060000
        k(    6) = (   0.0000000   0.0000000  -0.5000000), wk =   0.0030000
        k(    7) = (   0.0000000   0.1000000   0.1000000), wk =   0.0120000
        k(    8) = (   0.0000000   0.1000000   0.2000000), wk =   0.0240000
        k(    9) = (   0.0000000   0.1000000   0.3000000), wk =   0.0240000
        k(   10) = (   0.0000000   0.1000000   0.4000000), wk =   0.0240000
        k(   11) = (   0.0000000   0.1000000  -0.5000000), wk =   0.0120000
        k(   12) = (   0.0000000   0.2000000   0.2000000), wk =   0.0120000
        k(   13) = (   0.0000000   0.2000000   0.3000000), wk =   0.0240000
        k(   14) = (   0.0000000   0.2000000   0.4000000), wk =   0.0240000
        k(   15) = (   0.0000000   0.2000000  -0.5000000), wk =   0.0120000
        k(   16) = (   0.0000000   0.3000000   0.3000000), wk =   0.0120000
        k(   17) = (   0.0000000   0.3000000   0.4000000), wk =   0.0240000
        k(   18) = (   0.0000000   0.3000000  -0.5000000), wk =   0.0120000
        k(   19) = (   0.0000000   0.4000000   0.4000000), wk =   0.0120000
        k(   20) = (   0.0000000   0.4000000  -0.5000000), wk =   0.0120000
        k(   21) = (   0.0000000  -0.5000000  -0.5000000), wk =   0.0030000
        k(   22) = (   0.1000000   0.1000000   0.1000000), wk =   0.0080000
        k(   23) = (   0.1000000   0.1000000   0.2000000), wk =   0.0240000
        k(   24) = (   0.1000000   0.1000000   0.3000000), wk =   0.0240000
        k(   25) = (   0.1000000   0.1000000   0.4000000), wk =   0.0240000
        k(   26) = (   0.1000000   0.1000000  -0.5000000), wk =   0.0120000
        k(   27) = (   0.1000000   0.2000000   0.2000000), wk =   0.0240000
        k(   28) = (   0.1000000   0.2000000   0.3000000), wk =   0.0480000
        k(   29) = (   0.1000000   0.2000000   0.4000000), wk =   0.0480000
        k(   30) = (   0.1000000   0.2000000  -0.5000000), wk =   0.0240000
        k(   31) = (   0.1000000   0.3000000   0.3000000), wk =   0.0240000
        k(   32) = (   0.1000000   0.3000000   0.4000000), wk =   0.0480000
        k(   33) = (   0.1000000   0.3000000  -0.5000000), wk =   0.0240000
        k(   34) = (   0.1000000   0.4000000   0.4000000), wk =   0.0240000
        k(   35) = (   0.1000000   0.4000000  -0.5000000), wk =   0.0240000
        k(   36) = (   0.1000000  -0.5000000  -0.5000000), wk =   0.0060000
        k(   37) = (   0.2000000   0.2000000   0.2000000), wk =   0.0080000
        k(   38) = (   0.2000000   0.2000000   0.3000000), wk =   0.0240000
        k(   39) = (   0.2000000   0.2000000   0.4000000), wk =   0.0240000
        k(   40) = (   0.2000000   0.2000000  -0.5000000), wk =   0.0120000
        k(   41) = (   0.2000000   0.3000000   0.3000000), wk =   0.0240000
        k(   42) = (   0.2000000   0.3000000   0.4000000), wk =   0.0480000
        k(   43) = (   0.2000000   0.3000000  -0.5000000), wk =   0.0240000
        k(   44) = (   0.2000000   0.4000000   0.4000000), wk =   0.0240000
        k(   45) = (   0.2000000   0.4000000  -0.5000000), wk =   0.0240000
        k(   46) = (   0.2000000  -0.5000000  -0.5000000), wk =   0.0060000
        k(   47) = (   0.3000000   0.3000000   0.3000000), wk =   0.0080000
        k(   48) = (   0.3000000   0.3000000   0.4000000), wk =   0.0240000
        k(   49) = (   0.3000000   0.3000000  -0.5000000), wk =   0.0120000
        k(   50) = (   0.3000000   0.4000000   0.4000000), wk =   0.0240000
        k(   51) = (   0.3000000   0.4000000  -0.5000000), wk =   0.0240000
        k(   52) = (   0.3000000  -0.5000000  -0.5000000), wk =   0.0060000
        k(   53) = (   0.4000000   0.4000000   0.4000000), wk =   0.0080000
        k(   54) = (   0.4000000   0.4000000  -0.5000000), wk =   0.0120000
        k(   55) = (   0.4000000  -0.5000000  -0.5000000), wk =   0.0060000
        k(   56) = (  -0.5000000  -0.5000000  -0.5000000), wk =   0.0010000

     Dense  grid:   763649 G-vectors     FFT dimensions: ( 120, 120, 120)

     Smooth grid:   146965 G-vectors     FFT dimensions: (  72,  72,  72)

     Dynamical RAM for                 wfc:       5.39 MB

     Dynamical RAM for     wfc (w. buffer):     156.39 MB

     Dynamical RAM for           str. fact:       1.46 MB

     Dynamical RAM for           local pot:       0.00 MB

     Dynamical RAM for          nlocal pot:      10.09 MB

     Dynamical RAM for                qrad:       2.64 MB

     Dynamical RAM for          rho,v,vnew:      18.63 MB

     Dynamical RAM for               rhoin:       6.21 MB

     Dynamical RAM for            rho*nmix:      46.61 MB

     Dynamical RAM for           G-vectors:       5.60 MB

     Dynamical RAM for          h,s,v(r/c):       1.09 MB

     Dynamical RAM for          <psi|beta>:       0.68 MB

     Dynamical RAM for                 psi:      10.79 MB

     Dynamical RAM for                hpsi:      10.79 MB

     Dynamical RAM for                spsi:      10.79 MB

     Dynamical RAM for      wfcinit/wfcrot:      11.79 MB

     Dynamical RAM for           addusdens:      76.10 MB

     Dynamical RAM for          addusforce:      86.06 MB

     Dynamical RAM for         addusstress:      74.83 MB

     Estimated static dynamical RAM per process >     213.81 MB

     Estimated max dynamical RAM per process >     346.48 MB

     Estimated total dynamical RAM >       9.74 GB
     Generating pointlists ...
     new r_m :   0.1786 (alat units)  1.9362 (a.u.) for type    1

     Initial potential from superposition of free atoms

     starting charge     255.9930, renormalised to     256.0000
     Starting wfcs are  160 randomized atomic wfcs
     Checking if some PAW data can be deallocated... 

     total cpu time spent up to now is       10.2 secs

     per-process dynamical memory:   415.8 Mb

     Self-consistent Calculation

     iteration #  1     ecut=    90.00 Ry     beta= 0.20
     Davidson diagonalization with overlap

---- Real-time Memory Report at c_bands before calling an iterative solver
           498 MiB given to the printing process from OS
           406 MiB allocation reported by mallinfo(arena+hblkhd)
        429078 MiB available memory on the node where the printing process lives
------------------
     ethr =  1.00E-02,  avg # of iterations =  3.6

     total cpu time spent up to now is       39.2 secs

     total energy              =   -5265.72665526 Ry
     estimated scf accuracy    <       4.38810261 Ry

     total magnetization       =    50.23 Bohr mag/cell
     absolute magnetization    =    50.92 Bohr mag/cell

     iteration #  2     ecut=    90.00 Ry     beta= 0.20
     Davidson diagonalization with overlap

---- Real-time Memory Report at c_bands before calling an iterative solver
           577 MiB given to the printing process from OS
           421 MiB allocation reported by mallinfo(arena+hblkhd)
        428564 MiB available memory on the node where the printing process lives
------------------
     ethr =  1.71E-03,  avg # of iterations =  2.5

     negative rho (up, down):  0.000E+00 4.297E-03

     total cpu time spent up to now is       62.9 secs

     total energy              =   -5267.83196562 Ry
     estimated scf accuracy    <       3.01500927 Ry

     total magnetization       =    48.81 Bohr mag/cell
     absolute magnetization    =    49.94 Bohr mag/cell

     iteration #  3     ecut=    90.00 Ry     beta= 0.20
     Davidson diagonalization with overlap

---- Real-time Memory Report at c_bands before calling an iterative solver
           579 MiB given to the printing process from OS
           423 MiB allocation reported by mallinfo(arena+hblkhd)
        428572 MiB available memory on the node where the printing process lives
------------------
     ethr =  1.18E-03,  avg # of iterations =  1.6

     negative rho (up, down):  0.000E+00 5.447E-03

     total cpu time spent up to now is       86.6 secs

     total energy              =   -5268.26306777 Ry
     estimated scf accuracy    <       0.64670725 Ry

     total magnetization       =    41.23 Bohr mag/cell
     absolute magnetization    =    43.79 Bohr mag/cell

     iteration #  4     ecut=    90.00 Ry     beta= 0.20
     Davidson diagonalization with overlap

---- Real-time Memory Report at c_bands before calling an iterative solver
           580 MiB given to the printing process from OS
           424 MiB allocation reported by mallinfo(arena+hblkhd)
        428745 MiB available memory on the node where the printing process lives
------------------
     ethr =  2.53E-04,  avg # of iterations =  2.0

     negative rho (up, down):  0.000E+00 5.292E-03

     total cpu time spent up to now is      109.8 secs

     total energy              =   -5268.29286945 Ry
     estimated scf accuracy    <       0.43140338 Ry

     total magnetization       =    40.40 Bohr mag/cell
     absolute magnetization    =    43.02 Bohr mag/cell

     iteration #  5     ecut=    90.00 Ry     beta= 0.20
     Davidson diagonalization with overlap

---- Real-time Memory Report at c_bands before calling an iterative solver
           581 MiB given to the printing process from OS
           425 MiB allocation reported by mallinfo(arena+hblkhd)
        428733 MiB available memory on the node where the printing process lives
------------------
     ethr =  1.69E-04,  avg # of iterations =  1.3

     negative rho (up, down):  0.000E+00 4.965E-03

     total cpu time spent up to now is      130.9 secs

     total energy              =   -5268.28860936 Ry
     estimated scf accuracy    <       0.21185203 Ry

     total magnetization       =    40.25 Bohr mag/cell
     absolute magnetization    =    42.78 Bohr mag/cell

     iteration #  6     ecut=    90.00 Ry     beta= 0.20
     Davidson diagonalization with overlap

---- Real-time Memory Report at c_bands before calling an iterative solver
           583 MiB given to the printing process from OS
           427 MiB allocation reported by mallinfo(arena+hblkhd)
        428721 MiB available memory on the node where the printing process lives
------------------
     ethr =  8.28E-05,  avg # of iterations =  1.2

     negative rho (up, down):  0.000E+00 4.454E-03

     total cpu time spent up to now is      151.8 secs

     total energy              =   -5268.27419811 Ry
     estimated scf accuracy    <       0.14589622 Ry

     total magnetization       =    39.92 Bohr mag/cell
     absolute magnetization    =    42.41 Bohr mag/cell

     iteration #  7     ecut=    90.00 Ry     beta= 0.20
     Davidson diagonalization with overlap

---- Real-time Memory Report at c_bands before calling an iterative solver
           584 MiB given to the printing process from OS
           429 MiB allocation reported by mallinfo(arena+hblkhd)
        428710 MiB available memory on the node where the printing process lives
------------------
     ethr =  5.70E-05,  avg # of iterations =  1.7

     negative rho (up, down):  0.000E+00 3.943E-03

     total cpu time spent up to now is      174.4 secs

     total energy              =   -5268.28260560 Ry
     estimated scf accuracy    <       0.05847436 Ry

     total magnetization       =    39.04 Bohr mag/cell
     absolute magnetization    =    41.56 Bohr mag/cell

     iteration #  8     ecut=    90.00 Ry     beta= 0.20
     Davidson diagonalization with overlap

---- Real-time Memory Report at c_bands before calling an iterative solver
           586 MiB given to the printing process from OS
           430 MiB allocation reported by mallinfo(arena+hblkhd)
        428696 MiB available memory on the node where the printing process lives
------------------
     ethr =  2.28E-05,  avg # of iterations =  1.6

     negative rho (up, down):  0.000E+00 2.658E-03

     total cpu time spent up to now is      196.8 secs

     total energy              =   -5268.28759674 Ry
     estimated scf accuracy    <       0.04006125 Ry

     total magnetization       =    38.11 Bohr mag/cell
     absolute magnetization    =    40.65 Bohr mag/cell

     iteration #  9     ecut=    90.00 Ry     beta= 0.20
     Davidson diagonalization with overlap

---- Real-time Memory Report at c_bands before calling an iterative solver
           588 MiB given to the printing process from OS
           431 MiB allocation reported by mallinfo(arena+hblkhd)
        428686 MiB available memory on the node where the printing process lives
------------------
     ethr =  1.56E-05,  avg # of iterations =  2.3

     negative rho (up, down):  0.000E+00 1.141E-03

     total cpu time spent up to now is      220.7 secs

     total energy              =   -5268.29820318 Ry
     estimated scf accuracy    <       0.02409435 Ry

     total magnetization       =    36.72 Bohr mag/cell
     absolute magnetization    =    39.28 Bohr mag/cell

     iteration # 10     ecut=    90.00 Ry     beta= 0.20
     Davidson diagonalization with overlap

---- Real-time Memory Report at c_bands before calling an iterative solver
           589 MiB given to the printing process from OS
           433 MiB allocation reported by mallinfo(arena+hblkhd)
        428675 MiB available memory on the node where the printing process lives
------------------
     ethr =  9.41E-06,  avg # of iterations =  3.4

     negative rho (up, down):  0.000E+00 9.440E-04

     total cpu time spent up to now is      248.7 secs

     total energy              =   -5268.30821202 Ry
     estimated scf accuracy    <       0.00662805 Ry

     total magnetization       =    35.72 Bohr mag/cell
     absolute magnetization    =    38.08 Bohr mag/cell

     iteration # 11     ecut=    90.00 Ry     beta= 0.20
     Davidson diagonalization with overlap

---- Real-time Memory Report at c_bands before calling an iterative solver
           590 MiB given to the printing process from OS
           433 MiB allocation reported by mallinfo(arena+hblkhd)
        428673 MiB available memory on the node where the printing process lives
------------------
     ethr =  2.59E-06,  avg # of iterations =  3.6

     negative rho (up, down):  0.000E+00 8.570E-04

     total cpu time spent up to now is      274.4 secs

     total energy              =   -5268.30847487 Ry
     estimated scf accuracy    <       0.01014596 Ry

     total magnetization       =    35.51 Bohr mag/cell
     absolute magnetization    =    37.77 Bohr mag/cell

     iteration # 12     ecut=    90.00 Ry     beta= 0.20
     Davidson diagonalization with overlap

---- Real-time Memory Report at c_bands before calling an iterative solver
           590 MiB given to the printing process from OS
           433 MiB allocation reported by mallinfo(arena+hblkhd)
        428658 MiB available memory on the node where the printing process lives
------------------
     ethr =  2.59E-06,  avg # of iterations =  2.1

     negative rho (up, down):  0.000E+00 8.405E-04

     total cpu time spent up to now is      298.1 secs

     total energy              =   -5268.30983020 Ry
     estimated scf accuracy    <       0.00086420 Ry

     total magnetization       =    35.87 Bohr mag/cell
     absolute magnetization    =    38.01 Bohr mag/cell

     iteration # 13     ecut=    90.00 Ry     beta= 0.20
     Davidson diagonalization with overlap

---- Real-time Memory Report at c_bands before calling an iterative solver
           590 MiB given to the printing process from OS
           434 MiB allocation reported by mallinfo(arena+hblkhd)
        428644 MiB available memory on the node where the printing process lives
------------------
     ethr =  3.38E-07,  avg # of iterations =  3.5

     negative rho (up, down):  0.000E+00 7.623E-04

     total cpu time spent up to now is      323.6 secs

     total energy              =   -5268.30993113 Ry
     estimated scf accuracy    <       0.00064997 Ry

     total magnetization       =    35.82 Bohr mag/cell
     absolute magnetization    =    37.96 Bohr mag/cell

     iteration # 14     ecut=    90.00 Ry     beta= 0.20
     Davidson diagonalization with overlap

---- Real-time Memory Report at c_bands before calling an iterative solver
           590 MiB given to the printing process from OS
           433 MiB allocation reported by mallinfo(arena+hblkhd)
        428629 MiB available memory on the node where the printing process lives
------------------
     ethr =  2.54E-07,  avg # of iterations =  4.2

     negative rho (up, down):  0.000E+00 7.852E-04

     total cpu time spent up to now is      357.1 secs

     total energy              =   -5268.31067436 Ry
     estimated scf accuracy    <       0.00093720 Ry

     total magnetization       =    35.43 Bohr mag/cell
     absolute magnetization    =    37.51 Bohr mag/cell

     iteration # 15     ecut=    90.00 Ry     beta= 0.20
     Davidson diagonalization with overlap

---- Real-time Memory Report at c_bands before calling an iterative solver
           590 MiB given to the printing process from OS
           434 MiB allocation reported by mallinfo(arena+hblkhd)
        428682 MiB available memory on the node where the printing process lives
------------------
     ethr =  2.54E-07,  avg # of iterations =  2.5

     negative rho (up, down):  0.000E+00 7.928E-04

     total cpu time spent up to now is      382.3 secs

     total energy              =   -5268.31072399 Ry
     estimated scf accuracy    <       0.00013495 Ry

     total magnetization       =    35.52 Bohr mag/cell
     absolute magnetization    =    37.56 Bohr mag/cell

     iteration # 16     ecut=    90.00 Ry     beta= 0.20
     Davidson diagonalization with overlap

---- Real-time Memory Report at c_bands before calling an iterative solver
           590 MiB given to the printing process from OS
           434 MiB allocation reported by mallinfo(arena+hblkhd)
        428677 MiB available memory on the node where the printing process lives
------------------
     ethr =  5.27E-08,  avg # of iterations =  3.8

     negative rho (up, down):  0.000E+00 7.891E-04

     total cpu time spent up to now is      408.6 secs

     total energy              =   -5268.31075739 Ry
     estimated scf accuracy    <       0.00011797 Ry

     total magnetization       =    35.58 Bohr mag/cell
     absolute magnetization    =    37.61 Bohr mag/cell

     iteration # 17     ecut=    90.00 Ry     beta= 0.20
     Davidson diagonalization with overlap

---- Real-time Memory Report at c_bands before calling an iterative solver
           590 MiB given to the printing process from OS
           434 MiB allocation reported by mallinfo(arena+hblkhd)
        428666 MiB available memory on the node where the printing process lives
------------------
     ethr =  4.61E-08,  avg # of iterations =  1.6

     negative rho (up, down):  0.000E+00 7.854E-04

     total cpu time spent up to now is      431.3 secs

     total energy              =   -5268.31077903 Ry
     estimated scf accuracy    <       0.00001593 Ry

     total magnetization       =    35.53 Bohr mag/cell
     absolute magnetization    =    37.56 Bohr mag/cell

     iteration # 18     ecut=    90.00 Ry     beta= 0.20
     Davidson diagonalization with overlap

---- Real-time Memory Report at c_bands before calling an iterative solver
           590 MiB given to the printing process from OS
           434 MiB allocation reported by mallinfo(arena+hblkhd)
        428666 MiB available memory on the node where the printing process lives
------------------
     ethr =  6.22E-09,  avg # of iterations =  4.3

     negative rho (up, down):  0.000E+00 7.883E-04

     total cpu time spent up to now is      459.2 secs

     total energy              =   -5268.31078346 Ry
     estimated scf accuracy    <       0.00000483 Ry

     total magnetization       =    35.52 Bohr mag/cell
     absolute magnetization    =    37.54 Bohr mag/cell

     iteration # 19     ecut=    90.00 Ry     beta= 0.20
     Davidson diagonalization with overlap

---- Real-time Memory Report at c_bands before calling an iterative solver
           590 MiB given to the printing process from OS
           434 MiB allocation reported by mallinfo(arena+hblkhd)
        429808 MiB available memory on the node where the printing process lives
------------------
     ethr =  1.89E-09,  avg # of iterations =  2.5

     negative rho (up, down):  0.000E+00 7.869E-04

     total cpu time spent up to now is      483.4 secs

     total energy              =   -5268.31078594 Ry
     estimated scf accuracy    <       0.00000282 Ry

     total magnetization       =    35.52 Bohr mag/cell
     absolute magnetization    =    37.54 Bohr mag/cell

     iteration # 20     ecut=    90.00 Ry     beta= 0.20
     Davidson diagonalization with overlap

---- Real-time Memory Report at c_bands before calling an iterative solver
           590 MiB given to the printing process from OS
           434 MiB allocation reported by mallinfo(arena+hblkhd)
        429892 MiB available memory on the node where the printing process lives
------------------
     ethr =  1.10E-09,  avg # of iterations =  4.3

     negative rho (up, down):  0.000E+00 7.879E-04

     total cpu time spent up to now is      511.5 secs

     total energy              =   -5268.31078658 Ry
     estimated scf accuracy    <       0.00000198 Ry

     total magnetization       =    35.52 Bohr mag/cell
     absolute magnetization    =    37.53 Bohr mag/cell

     iteration # 21     ecut=    90.00 Ry     beta= 0.20
     Davidson diagonalization with overlap

---- Real-time Memory Report at c_bands before calling an iterative solver
           591 MiB given to the printing process from OS
           435 MiB allocation reported by mallinfo(arena+hblkhd)
        429889 MiB available memory on the node where the printing process lives
------------------
     ethr =  7.73E-10,  avg # of iterations =  1.3

     negative rho (up, down):  0.000E+00 7.872E-04

     total cpu time spent up to now is      533.0 secs

     total energy              =   -5268.31078715 Ry
     estimated scf accuracy    <       0.00000026 Ry

     total magnetization       =    35.52 Bohr mag/cell
     absolute magnetization    =    37.53 Bohr mag/cell

     iteration # 22     ecut=    90.00 Ry     beta= 0.20
     Davidson diagonalization with overlap

---- Real-time Memory Report at c_bands before calling an iterative solver
           591 MiB given to the printing process from OS
           435 MiB allocation reported by mallinfo(arena+hblkhd)
        429889 MiB available memory on the node where the printing process lives
------------------
     ethr =  1.00E-10,  avg # of iterations =  3.4

     negative rho (up, down):  0.000E+00 7.861E-04

     total cpu time spent up to now is      561.6 secs

     total energy              =   -5268.31078741 Ry
     estimated scf accuracy    <       0.00000015 Ry

     total magnetization       =    35.52 Bohr mag/cell
     absolute magnetization    =    37.53 Bohr mag/cell

     iteration # 23     ecut=    90.00 Ry     beta= 0.20
     Davidson diagonalization with overlap

---- Real-time Memory Report at c_bands before calling an iterative solver
           591 MiB given to the printing process from OS
           435 MiB allocation reported by mallinfo(arena+hblkhd)
        429913 MiB available memory on the node where the printing process lives
------------------
     ethr =  6.03E-11,  avg # of iterations =  4.4

     negative rho (up, down):  0.000E+00 7.859E-04

     total cpu time spent up to now is      590.0 secs

     total energy              =   -5268.31078749 Ry
     estimated scf accuracy    <       0.00000002 Ry

     total magnetization       =    35.52 Bohr mag/cell
     absolute magnetization    =    37.53 Bohr mag/cell

     iteration # 24     ecut=    90.00 Ry     beta= 0.20
     Davidson diagonalization with overlap

---- Real-time Memory Report at c_bands before calling an iterative solver
           591 MiB given to the printing process from OS
           436 MiB allocation reported by mallinfo(arena+hblkhd)
        429911 MiB available memory on the node where the printing process lives
------------------
     ethr =  8.40E-12,  avg # of iterations =  4.7

     negative rho (up, down):  0.000E+00 7.858E-04

     total cpu time spent up to now is      620.0 secs

     total energy              =   -5268.31078752 Ry
     estimated scf accuracy    <       0.00000002 Ry

     total magnetization       =    35.52 Bohr mag/cell
     absolute magnetization    =    37.53 Bohr mag/cell

     iteration # 25     ecut=    90.00 Ry     beta= 0.20
     Davidson diagonalization with overlap

---- Real-time Memory Report at c_bands before calling an iterative solver
           591 MiB given to the printing process from OS
           436 MiB allocation reported by mallinfo(arena+hblkhd)
        429891 MiB available memory on the node where the printing process lives
------------------
     ethr =  6.06E-12,  avg # of iterations =  2.0

     negative rho (up, down):  0.000E+00 7.858E-04

     Magnetic moment per site  (integrated on atomic sphere of radius R)
     atom   1 (R=0.179)  charge= 14.4212  magn=  2.2730
     atom   2 (R=0.179)  charge= 14.4211  magn=  2.2732
     atom   3 (R=0.179)  charge= 14.4211  magn=  2.2730
     atom   4 (R=0.179)  charge= 14.4211  magn=  2.2732
     atom   5 (R=0.179)  charge= 14.4211  magn=  2.2730
     atom   6 (R=0.179)  charge= 14.4211  magn=  2.2732
     atom   7 (R=0.179)  charge= 14.4211  magn=  2.2732
     atom   8 (R=0.179)  charge= 14.4211  magn=  2.2732
     atom   9 (R=0.179)  charge= 14.4211  magn=  2.2730
     atom  10 (R=0.179)  charge= 14.4211  magn=  2.2732
     atom  11 (R=0.179)  charge= 14.4211  magn=  2.2732
     atom  12 (R=0.179)  charge= 14.4211  magn=  2.2732
     atom  13 (R=0.179)  charge= 14.4211  magn=  2.2732
     atom  14 (R=0.179)  charge= 14.4211  magn=  2.2732
     atom  15 (R=0.179)  charge= 14.4212  magn=  2.2733
     atom  16 (R=0.179)  charge= 14.4211  magn=  2.2732

     total cpu time spent up to now is      643.3 secs

     End of self-consistent calculation

 ------ SPIN UP ------------


          k = 0.0000 0.0000 0.0000 ( 18325 PWs)   bands (ev):

   -70.5986 -70.5359 -70.5359 -70.5359 -70.5359 -70.5359 -70.5359 -70.5315
   -70.5315 -70.5315 -70.5315 -70.5314 -70.5314 -70.5271 -70.5271 -70.4817
   -36.7852 -36.7852 -36.7852 -36.7851 -36.7851 -36.7851 -36.6851 -36.6851
   -36.6851 -36.6101 -36.6101 -36.6101 -36.6101 -36.6101 -36.6101 -36.6001
   -36.6001 -36.6001 -36.6000 -36.6000 -36.6000 -36.5503 -36.5503 -36.5503
   -36.5503 -36.5503 -36.5503 -36.5503 -36.5503 -36.5503 -36.5503 -36.5503
   -36.5503 -36.5456 -36.5456 -36.5456 -36.5455 -36.5455 -36.5455 -36.4230
   -36.4230 -36.4230 -36.4225 -36.4225 -36.4225 -36.4225 -36.4225 -36.4225
     9.1519  12.6977  12.6977  12.6977  12.6977  12.6977  12.6977  12.7932
    12.7932  12.8940  12.8940  12.8940  12.8940  12.8940  12.8940  14.2045
    14.2045  14.2045  14.2045  14.2045  14.2045  14.3409  14.3409  14.3409
    14.3409  14.3409  14.3409  14.5576  14.5576  14.5576  14.5576  14.5576
    14.5576  15.2355  15.2355  15.2355  15.6577  15.6577  15.6577  15.6577
    15.6577  15.6577  15.6578  15.6578  15.6578  15.6578  15.6578  15.6578
    16.3640  16.3640  16.3640  16.3641  16.3641  16.3641  16.3651  16.3651
    16.4345  16.4345  16.4346  16.4346  16.4346  16.4346  16.5429  16.5429
    16.5430  16.5430  16.5430  16.5430  16.5766  16.5766  16.5766  16.5766
    17.5456  17.5456  17.5456  17.5866  17.5866  17.5866  17.5866  17.5866
    17.5866  17.8035  17.8035  17.8035  17.8035  17.8035  17.8035  17.9292
    17.9292  17.9292

     occupation numbers 
     1.0000   1.0000   1.0000   1.0000   1.0000   1.0000   1.0000   1.0000
     1.0000   1.0000   1.0000   1.0000   1.0000   1.0000   1.0000   1.0000
     1.0000   1.0000   1.0000   1.0000   1.0000   1.0000   1.0000   1.0000
     1.0000   1.0000   1.0000   1.0000   1.0000   1.0000   1.0000   1.0000
     1.0000   1.0000   1.0000   1.0000   1.0000   1.0000   1.0000   1.0000
     1.0000   1.0000   1.0000   1.0000   1.0000   1.0000   1.0000   1.0000
     1.0000   1.0000   1.0000   1.0000   1.0000   1.0000   1.0000   1.0000
     1.0000   1.0000   1.0000   1.0000   1.0000   1.0000   1.0000   1.0000
     1.0000   1.0000   1.0000   1.0000   1.0000   1.0000   1.0000   1.0000
     1.0000   1.0000   1.0000   1.0000   1.0000   1.0000   1.0000   1.0000
     1.0000   1.0000   1.0000   1.0000   1.0000   1.0000   1.0000   1.0000
     1.0000   1.0000   1.0000   1.0000   1.0000   1.0000   1.0000   1.0000
     1.0000   1.0000   1.0000   1.0000   1.0000   1.0000   1.0000   1.0000
     1.0000   1.0000   1.0000   1.0000   1.0000   1.0000   1.0000   1.0000
     1.0000   1.0000   1.0000   1.0000   1.0000   1.0000   1.0000   1.0000
     1.0000   1.0000   1.0000   1.0000   1.0000   1.0000   1.0000   1.0000
     1.0000   1.0000   1.0000   1.0000   1.0000   1.0000   1.0000   1.0000
     0.0701   0.0701   0.0701   0.0257   0.0257   0.0257   0.0257   0.0257
     0.0257   0.0000   0.0000   0.0000   0.0000   0.0000   0.0000   0.0000
     0.0000   0.0000

          k = 0.0000 0.0000 0.1000 ( 18373 PWs)   bands (ev):

   -70.5978 -70.5452 -70.5358 -70.5358 -70.5358 -70.5358 -70.5316 -70.5316
   -70.5316 -70.5315 -70.5314 -70.5313 -70.5272 -70.5272 -70.5268 -70.4823
   -36.7828 -36.7828 -36.7824 -36.7823 -36.7823 -36.7823 -36.6849 -36.6834
   -36.6834 -36.6292 -36.6285 -36.6285 -36.6216 -36.6216 -36.6216 -36.6216
   -36.5987 -36.5987 -36.5883 -36.5717 -36.5717 -36.5709 -36.5709 -36.5502
   -36.5502 -36.5502 -36.5502 -36.5469 -36.5469 -36.5457 -36.5457 -36.5457
   -36.5457 -36.5401 -36.5401 -36.5401 -36.5401 -36.5299 -36.5299 -36.4260
   -36.4246 -36.4246 -36.4246 -36.4246 -36.4241 -36.4241 -36.4241 -36.4241
     9.2026  12.4588  12.7120  12.7120  12.7120  12.7120  12.7324  12.7324
    12.8143  12.8150  12.9119  12.9119  12.9119  12.9119  13.1969  14.1998
    14.1998  14.2258  14.2258  14.2258  14.2258  14.2399  14.2399  14.2763
    14.2931  14.2931  14.4816  14.4816  14.5404  14.5404  14.5404  14.5404
    14.8401  15.2350  15.2350  15.2491  15.5241  15.5241  15.5615  15.5615
    15.5615  15.5616  15.6984  15.6984  15.6985  15.6985  15.8219  15.8219
    16.1839  16.3431  16.3738  16.3890  16.3890  16.3890  16.3890  16.4389
    16.4389  16.4506  16.4506  16.4506  16.4506  16.4597  16.4598  16.4598
    16.4598  16.5438  16.5438  16.5455  16.5750  16.5750  16.5758  16.5758
    17.2004  17.2938  17.2938  17.5030  17.5030  17.5307  17.6015  17.6015
    17.6015  17.6015  17.7826  17.7826  17.7826  17.7827  17.9582  17.9582
    17.9582  17.9582

     occupation numbers 
     1.0000   1.0000   1.0000   1.0000   1.0000   1.0000   1.0000   1.0000
     1.0000   1.0000   1.0000   1.0000   1.0000   1.0000   1.0000   1.0000
     1.0000   1.0000   1.0000   1.0000   1.0000   1.0000   1.0000   1.0000
     1.0000   1.0000   1.0000   1.0000   1.0000   1.0000   1.0000   1.0000
     1.0000   1.0000   1.0000   1.0000   1.0000   1.0000   1.0000   1.0000
     1.0000   1.0000   1.0000   1.0000   1.0000   1.0000   1.0000   1.0000
     1.0000   1.0000   1.0000   1.0000   1.0000   1.0000   1.0000   1.0000
     1.0000   1.0000   1.0000   1.0000   1.0000   1.0000   1.0000   1.0000
     1.0000   1.0000   1.0000   1.0000   1.0000   1.0000   1.0000   1.0000
     1.0000   1.0000   1.0000   1.0000   1.0000   1.0000   1.0000   1.0000
     1.0000   1.0000   1.0000   1.0000   1.0000   1.0000   1.0000   1.0000
     1.0000   1.0000   1.0000   1.0000   1.0000   1.0000   1.0000   1.0000
     1.0000   1.0000   1.0000   1.0000   1.0000   1.0000   1.0000   1.0000
     1.0000   1.0000   1.0000   1.0000   1.0000   1.0000   1.0000   1.0000
     1.0000   1.0000   1.0000   1.0000   1.0000   1.0000   1.0000   1.0000
     1.0000   1.0000   1.0000   1.0000   1.0000   1.0000   1.0000   1.0000
     1.0000   1.0000   1.0000   1.0000   1.0000   1.0000   1.0000   1.0000
     1.0597   1.0555   1.0555   0.1659   0.1659   0.0968   0.0172   0.0172
     0.0172   0.0171   0.0000   0.0000   0.0000   0.0000   0.0000   0.0000
     0.0000   0.0000

          k = 0.0000 0.0000 0.2000 ( 18397 PWs)   bands (ev):

   -70.5954 -70.5544 -70.5355 -70.5355 -70.5355 -70.5354 -70.5319 -70.5319
   -70.5319 -70.5318 -70.5310 -70.5310 -70.5275 -70.5275 -70.5182 -70.4841
   -36.7759 -36.7759 -36.7741 -36.7741 -36.7741 -36.7741 -36.6840 -36.6783
   -36.6783 -36.6565 -36.6565 -36.6452 -36.6448 -36.6448 -36.6448 -36.6448
   -36.5948 -36.5948 -36.5912 -36.5912 -36.5645 -36.5508 -36.5508 -36.5499
   -36.5499 -36.5499 -36.5499 -36.5460 -36.5460 -36.5460 -36.5460 -36.5443
   -36.5443 -36.5202 -36.5202 -36.5202 -36.5202 -36.5102 -36.5102 -36.4348
   -36.4310 -36.4310 -36.4291 -36.4291 -36.4291 -36.4290 -36.4290 -36.4290
     9.3537  11.9380  12.7529  12.7529  12.7529  12.7529  12.8340  12.8340
    12.8773  12.8782  12.9550  12.9550  12.9550  12.9550  13.3530  14.0035
    14.1572  14.1572  14.1738  14.1738  14.1862  14.1862  14.2890  14.2890
    14.2890  14.2890  14.5165  14.5165  14.5165  14.5165  14.6655  14.6655
    15.1162  15.2344  15.2344  15.2895  15.3583  15.3583  15.3583  15.3583
    15.4203  15.4203  15.8021  15.8021  15.8021  15.8021  16.0094  16.0157
    16.0157  16.0864  16.0864  16.0864  16.0864  16.2775  16.3996  16.4047
    16.4047  16.4047  16.4047  16.4514  16.4514  16.5461  16.5461  16.5694
    16.5694  16.5734  16.5734  16.6621  16.6621  16.6621  16.6621  16.7235
    16.7732  16.7732  16.9475  17.3816  17.3816  17.4865  17.6451  17.6451
    17.6451  17.6452  17.7205  17.7205  17.7205  17.7205  18.0015  18.0015
    18.0015  18.0015

     occupation numbers 
     1.0000   1.0000   1.0000   1.0000   1.0000   1.0000   1.0000   1.0000
     1.0000   1.0000   1.0000   1.0000   1.0000   1.0000   1.0000   1.0000
     1.0000   1.0000   1.0000   1.0000   1.0000   1.0000   1.0000   1.0000
     1.0000   1.0000   1.0000   1.0000   1.0000   1.0000   1.0000   1.0000
     1.0000   1.0000   1.0000   1.0000   1.0000   1.0000   1.0000   1.0000
     1.0000   1.0000   1.0000   1.0000   1.0000   1.0000   1.0000   1.0000
     1.0000   1.0000   1.0000   1.0000   1.0000   1.0000   1.0000   1.0000
     1.0000   1.0000   1.0000   1.0000   1.0000   1.0000   1.0000   1.0000
     1.0000   1.0000   1.0000   1.0000   1.0000   1.0000   1.0000   1.0000
     1.0000   1.0000   1.0000   1.0000   1.0000   1.0000   1.0000   1.0000
     1.0000   1.0000   1.0000   1.0000   1.0000   1.0000   1.0000   1.0000
     1.0000   1.0000   1.0000   1.0000   1.0000   1.0000   1.0000   1.0000
     1.0000   1.0000   1.0000   1.0000   1.0000   1.0000   1.0000   1.0000
     1.0000   1.0000   1.0000   1.0000   1.0000   1.0000   1.0000   1.0000
     1.0000   1.0000   1.0000   1.0000   1.0000   1.0000   1.0000   1.0000
     1.0000   1.0000   1.0000   1.0000   1.0000   1.0000   1.0000   1.0000
     1.0000   1.0000   1.0000   1.0000   1.0000   1.0000   1.0000   1.0000
     1.0000   1.0000   1.0001   0.7450   0.7450   0.2205   0.0046   0.0046
     0.0046   0.0046   0.0003   0.0003   0.0003   0.0003   0.0000   0.0000
     0.0000   0.0000

          k = 0.0000 0.0000 0.3000 ( 18385 PWs)   bands (ev):

   -70.5914 -70.5633 -70.5350 -70.5350 -70.5350 -70.5349 -70.5324 -70.5324
   -70.5324 -70.5323 -70.5306 -70.5306 -70.5280 -70.5280 -70.5102 -70.4871
   -36.7646 -36.7646 -36.7607 -36.7607 -36.7607 -36.7607 -36.6832 -36.6832
   -36.6823 -36.6709 -36.6709 -36.6709 -36.6709 -36.6701 -36.6701 -36.6579
   -36.6106 -36.6106 -36.5889 -36.5888 -36.5568 -36.5568 -36.5494 -36.5494
   -36.5494 -36.5494 -36.5466 -36.5466 -36.5465 -36.5465 -36.5393 -36.5184
   -36.5184 -36.4993 -36.4993 -36.4993 -36.4993 -36.4916 -36.4916 -36.4490
   -36.4415 -36.4415 -36.4372 -36.4372 -36.4372 -36.4372 -36.4365 -36.4365
     9.6018  11.3871  12.8153  12.8153  12.8153  12.8153  12.9758  12.9809
    12.9945  12.9945  12.9945  12.9945  12.9962  12.9962  13.3838  13.7459
    13.9536  13.9536  14.1376  14.1376  14.1669  14.1669  14.3925  14.3925
    14.3925  14.3925  14.5456  14.5456  14.5456  14.5456  14.8950  14.8950
    15.1309  15.1309  15.1309  15.1309  15.2358  15.2358  15.3442  15.3442
    15.3559  15.3792  15.6871  15.6871  15.6871  15.6871  15.8449  15.9334
    15.9334  15.9334  15.9334  16.1697  16.2357  16.2357  16.2995  16.2995
    16.3522  16.3522  16.3522  16.3522  16.4413  16.4706  16.4706  16.5498
    16.5498  16.5580  16.5581  16.5697  16.5697  16.7796  16.8882  16.8883
    16.8883  16.8883  16.8939  17.1975  17.1975  17.4143  17.6186  17.6186
    17.6186  17.6186  17.7138  17.7138  17.7138  17.7138  18.0067  18.0067
    18.0067  18.0067

     occupation numbers 
     1.0000   1.0000   1.0000   1.0000   1.0000   1.0000   1.0000   1.0000
     1.0000   1.0000   1.0000   1.0000   1.0000   1.0000   1.0000   1.0000
     1.0000   1.0000   1.0000   1.0000   1.0000   1.0000   1.0000   1.0000
     1.0000   1.0000   1.0000   1.0000   1.0000   1.0000   1.0000   1.0000
     1.0000   1.0000   1.0000   1.0000   1.0000   1.0000   1.0000   1.0000
     1.0000   1.0000   1.0000   1.0000   1.0000   1.0000   1.0000   1.0000
     1.0000   1.0000   1.0000   1.0000   1.0000   1.0000   1.0000   1.0000
     1.0000   1.0000   1.0000   1.0000   1.0000   1.0000   1.0000   1.0000
     1.0000   1.0000   1.0000   1.0000   1.0000   1.0000   1.0000   1.0000
     1.0000   1.0000   1.0000   1.0000   1.0000   1.0000   1.0000   1.0000
     1.0000   1.0000   1.0000   1.0000   1.0000   1.0000   1.0000   1.0000
     1.0000   1.0000   1.0000   1.0000   1.0000   1.0000   1.0000   1.0000
     1.0000   1.0000   1.0000   1.0000   1.0000   1.0000   1.0000   1.0000
     1.0000   1.0000   1.0000   1.0000   1.0000   1.0000   1.0000   1.0000
     1.0000   1.0000   1.0000   1.0000   1.0000   1.0000   1.0000   1.0000
     1.0000   1.0000   1.0000   1.0000   1.0000   1.0000   1.0000   1.0000
     1.0000   1.0000   1.0000   1.0000   1.0000   1.0000   1.0000   1.0000
     1.0000   1.0000   1.0000   1.0577   1.0577   0.5664   0.0104   0.0104
     0.0104   0.0104   0.0004   0.0004   0.0004   0.0004   0.0000   0.0000
     0.0000   0.0000

          k = 0.0000 0.0000 0.4000 ( 18384 PWs)   bands (ev):

   -70.5860 -70.5718 -70.5344 -70.5344 -70.5344 -70.5343 -70.5330 -70.5330
   -70.5330 -70.5330 -70.5300 -70.5299 -70.5286 -70.5286 -70.5030 -70.4913
   -36.7492 -36.7492 -36.7429 -36.7429 -36.7429 -36.7428 -36.7080 -36.7080
   -36.6969 -36.6969 -36.6969 -36.6969 -36.6793 -36.6676 -36.6588 -36.6588
   -36.6287 -36.6287 -36.5813 -36.5812 -36.5644 -36.5644 -36.5487 -36.5487
   -36.5487 -36.5487 -36.5472 -36.5472 -36.5472 -36.5472 -36.5140 -36.4947
   -36.4947 -36.4799 -36.4799 -36.4799 -36.4799 -36.4746 -36.4746 -36.4676
   -36.4558 -36.4558 -36.4485 -36.4485 -36.4485 -36.4485 -36.4467 -36.4467
     9.9411  10.8513  12.8890  12.8890  12.8890  12.8890  12.9982  12.9982
    12.9982  12.9982  13.0959  13.1231  13.2076  13.2076  13.3272  13.5098
    13.7093  13.7094  14.1254  14.1254  14.1465  14.1465  14.5334  14.5334
    14.5334  14.5334  14.6797  14.6797  14.6797  14.6797  14.9094  14.9094
    14.9094  14.9094  15.1725  15.1725  15.2429  15.2429  15.2839  15.2839
    15.2839  15.2839  15.2922  15.2922  15.4468  15.6218  15.6941  15.8745
    15.8745  16.0220  16.0651  16.0651  16.0651  16.0651  16.2784  16.2784
    16.2784  16.2784  16.4754  16.4754  16.4939  16.4939  16.4981  16.5406
    16.5406  16.5545  16.5545  16.5650  16.5650  16.6607  16.9720  16.9720
    17.0522  17.1079  17.1079  17.1079  17.1079  17.3160  17.4797  17.4797
    17.4797  17.4797  17.7993  17.7994  17.7994  17.7994  17.9645  17.9645
    17.9645  17.9645

     occupation numbers 
     1.0000   1.0000   1.0000   1.0000   1.0000   1.0000   1.0000   1.0000
     1.0000   1.0000   1.0000   1.0000   1.0000   1.0000   1.0000   1.0000
     1.0000   1.0000   1.0000   1.0000   1.0000   1.0000   1.0000   1.0000
     1.0000   1.0000   1.0000   1.0000   1.0000   1.0000   1.0000   1.0000
     1.0000   1.0000   1.0000   1.0000   1.0000   1.0000   1.0000   1.0000
     1.0000   1.0000   1.0000   1.0000   1.0000   1.0000   1.0000   1.0000
     1.0000   1.0000   1.0000   1.0000   1.0000   1.0000   1.0000   1.0000
     1.0000   1.0000   1.0000   1.0000   1.0000   1.0000   1.0000   1.0000
     1.0000   1.0000   1.0000   1.0000   1.0000   1.0000   1.0000   1.0000
     1.0000   1.0000   1.0000   1.0000   1.0000   1.0000   1.0000   1.0000
     1.0000   1.0000   1.0000   1.0000   1.0000   1.0000   1.0000   1.0000
     1.0000   1.0000   1.0000   1.0000   1.0000   1.0000   1.0000   1.0000
     1.0000   1.0000   1.0000   1.0000   1.0000   1.0000   1.0000   1.0000
     1.0000   1.0000   1.0000   1.0000   1.0000   1.0000   1.0000   1.0000
     1.0000   1.0000   1.0000   1.0000   1.0000   1.0000   1.0000   1.0000
     1.0000   1.0000   1.0000   1.0000   1.0000   1.0000   1.0000   1.0000
     1.0000   1.0000   1.0000   1.0000   1.0000   1.0000   1.0001   1.0001
     1.0024   1.0111   1.0111   1.0111   1.0111   1.0108   0.2461   0.2461
     0.2461   0.2460   0.0000   0.0000   0.0000   0.0000   0.0000   0.0000
     0.0000   0.0000

          k = 0.0000 0.0000-0.5000 ( 18368 PWs)   bands (ev):

   -70.5794 -70.5794 -70.5337 -70.5337 -70.5337 -70.5337 -70.5337 -70.5337
   -70.5337 -70.5336 -70.5293 -70.5293 -70.5293 -70.5292 -70.4967 -70.4966
   -36.7302 -36.7302 -36.7301 -36.7301 -36.7213 -36.7213 -36.7213 -36.7213
   -36.7213 -36.7212 -36.7212 -36.7212 -36.6746 -36.6746 -36.6449 -36.6449
   -36.6448 -36.6448 -36.5729 -36.5729 -36.5729 -36.5728 -36.5480 -36.5480
   -36.5480 -36.5480 -36.5480 -36.5480 -36.5479 -36.5479 -36.4897 -36.4897
   -36.4737 -36.4737 -36.4736 -36.4736 -36.4629 -36.4629 -36.4629 -36.4629
   -36.4628 -36.4628 -36.4628 -36.4628 -36.4595 -36.4595 -36.4595 -36.4595
    10.3623  10.3623  12.9575  12.9575  12.9575  12.9575  12.9575  12.9575
    12.9575  12.9575  13.2209  13.2210  13.3007  13.3007  13.4522  13.4522
    13.4523  13.4523  14.1305  14.1305  14.1305  14.1305  14.7075  14.7076
    14.7076  14.7076  14.7076  14.7076  14.7076  14.7076  14.9337  14.9337
    14.9337  14.9337  14.9337  14.9337  14.9337  14.9337  15.2601  15.2601
    15.2602  15.2602  15.4988  15.4988  15.4988  15.4988  15.5604  15.5604
    15.8379  15.8380  16.1822  16.1822  16.1822  16.1822  16.1822  16.1822
    16.1822  16.1822  16.5183  16.5183  16.5183  16.5184  16.5597  16.5598
    16.5598  16.5598  16.5701  16.5702  16.7254  16.7254  16.7254  16.7254
    17.1941  17.1942  17.3076  17.3076  17.3076  17.3077  17.3077  17.3077
    17.3077  17.3077  17.8888  17.8888  17.8889  17.8889  17.8889  17.8889
    17.8889  17.8889

     occupation numbers 
     1.0000   1.0000   1.0000   1.0000   1.0000   1.0000   1.0000   1.0000
     1.0000   1.0000   1.0000   1.0000   1.0000   1.0000   1.0000   1.0000
     1.0000   1.0000   1.0000   1.0000   1.0000   1.0000   1.0000   1.0000
     1.0000   1.0000   1.0000   1.0000   1.0000   1.0000   1.0000   1.0000
     1.0000   1.0000   1.0000   1.0000   1.0000   1.0000   1.0000   1.0000
     1.0000   1.0000   1.0000   1.0000   1.0000   1.0000   1.0000   1.0000
     1.0000   1.0000   1.0000   1.0000   1.0000   1.0000   1.0000   1.0000
     1.0000   1.0000   1.0000   1.0000   1.0000   1.0000   1.0000   1.0000
     1.0000   1.0000   1.0000   1.0000   1.0000   1.0000   1.0000   1.0000
     1.0000   1.0000   1.0000   1.0000   1.0000   1.0000   1.0000   1.0000
     1.0000   1.0000   1.0000   1.0000   1.0000   1.0000   1.0000   1.0000
     1.0000   1.0000   1.0000   1.0000   1.0000   1.0000   1.0000   1.0000
     1.0000   1.0000   1.0000   1.0000   1.0000   1.0000   1.0000   1.0000
     1.0000   1.0000   1.0000   1.0000   1.0000   1.0000   1.0000   1.0000
     1.0000   1.0000   1.0000   1.0000   1.0000   1.0000   1.0000   1.0000
     1.0000   1.0000   1.0000   1.0000   1.0000   1.0000   1.0000   1.0000
     1.0000   1.0000   1.0000   1.0000   1.0000   1.0000   1.0000   1.0000
     1.0554   1.0554   1.0304   1.0304   1.0304   1.0304   1.0303   1.0303
     1.0303   1.0302   0.0000   0.0000   0.0000   0.0000   0.0000   0.0000
     0.0000   0.0000

          k = 0.0000 0.1000 0.1000 ( 18367 PWs)   bands (ev):

   -70.5970 -70.5449 -70.5449 -70.5357 -70.5357 -70.5331 -70.5315 -70.5315
   -70.5315 -70.5314 -70.5302 -70.5273 -70.5273 -70.5269 -70.5268 -70.4829
   -36.7827 -36.7801 -36.7801 -36.7801 -36.7801 -36.7764 -36.6876 -36.6817
   -36.6788 -36.6403 -36.6403 -36.6391 -36.6391 -36.6300 -36.6299 -36.6000
   -36.6000 -36.5988 -36.5988 -36.5706 -36.5706 -36.5605 -36.5605 -36.5598
   -36.5598 -36.5516 -36.5515 -36.5490 -36.5470 -36.5470 -36.5470 -36.5470
   -36.5426 -36.5314 -36.5314 -36.5301 -36.5300 -36.5199 -36.5199 -36.4320
   -36.4290 -36.4262 -36.4262 -36.4261 -36.4261 -36.4261 -36.4230 -36.4225
     9.2531  12.4822  12.4822  12.6928  12.7467  12.7467  12.7467  12.7467
    12.7565  12.8353  12.8368  12.9310  12.9310  13.2125  13.2125  14.1710
    14.1710  14.2204  14.2204  14.2204  14.2204  14.2281  14.2658  14.2699
    14.2699  14.3282  14.3282  14.5058  14.5058  14.5207  14.5207  14.8055
    14.8055  15.2084  15.2338  15.2887  15.4308  15.4308  15.5093  15.5093
    15.5874  15.5874  15.7125  15.7125  15.7227  15.7227  15.8408  15.8408
    16.1675  16.2801  16.2801  16.3377  16.3673  16.3829  16.3830  16.3830
    16.3830  16.3867  16.4061  16.4472  16.4472  16.4472  16.4472  16.5344
    16.5344  16.5362  16.5735  16.5735  16.5752  16.5752  16.6402  16.6402
    17.2028  17.2028  17.3323  17.3323  17.3323  17.3323  17.4262  17.4604
    17.5387  17.5518  17.6220  17.6220  17.7274  17.7971  18.1801  18.1801
    18.3793  18.4672

     occupation numbers 
     1.0000   1.0000   1.0000   1.0000   1.0000   1.0000   1.0000   1.0000
     1.0000   1.0000   1.0000   1.0000   1.0000   1.0000   1.0000   1.0000
     1.0000   1.0000   1.0000   1.0000   1.0000   1.0000   1.0000   1.0000
     1.0000   1.0000   1.0000   1.0000   1.0000   1.0000   1.0000   1.0000
     1.0000   1.0000   1.0000   1.0000   1.0000   1.0000   1.0000   1.0000
     1.0000   1.0000   1.0000   1.0000   1.0000   1.0000   1.0000   1.0000
     1.0000   1.0000   1.0000   1.0000   1.0000   1.0000   1.0000   1.0000
     1.0000   1.0000   1.0000   1.0000   1.0000   1.0000   1.0000   1.0000
     1.0000   1.0000   1.0000   1.0000   1.0000   1.0000   1.0000   1.0000
     1.0000   1.0000   1.0000   1.0000   1.0000   1.0000   1.0000   1.0000
     1.0000   1.0000   1.0000   1.0000   1.0000   1.0000   1.0000   1.0000
     1.0000   1.0000   1.0000   1.0000   1.0000   1.0000   1.0000   1.0000
     1.0000   1.0000   1.0000   1.0000   1.0000   1.0000   1.0000   1.0000
     1.0000   1.0000   1.0000   1.0000   1.0000   1.0000   1.0000   1.0000
     1.0000   1.0000   1.0000   1.0000   1.0000   1.0000   1.0000   1.0000
     1.0000   1.0000   1.0000   1.0000   1.0000   1.0000   1.0000   1.0000
     1.0000   1.0000   1.0000   1.0000   1.0000   1.0000   1.0000   1.0000
     1.0614   1.0614   0.9623   0.9623   0.9623   0.9623   0.5008   0.3281
     0.0816   0.0609   0.0094   0.0094   0.0002   0.0000   0.0000   0.0000
     0.0000   0.0000

          k = 0.0000 0.1000 0.2000 ( 18393 PWs)   bands (ev):

   -70.5946 -70.5541 -70.5443 -70.5354 -70.5354 -70.5348 -70.5318 -70.5318
   -70.5312 -70.5311 -70.5292 -70.5276 -70.5276 -70.5269 -70.5183 -70.4847
   -36.7776 -36.7734 -36.7734 -36.7720 -36.7720 -36.7652 -36.6892 -36.6767
   -36.6713 -36.6626 -36.6610 -36.6610 -36.6559 -36.6495 -36.6495 -36.6239
   -36.5958 -36.5958 -36.5906 -36.5807 -36.5763 -36.5695 -36.5525 -36.5521
   -36.5521 -36.5511 -36.5510 -36.5475 -36.5475 -36.5401 -36.5398 -36.5377
   -36.5377 -36.5305 -36.5144 -36.5144 -36.5106 -36.5009 -36.5005 -36.4433
   -36.4370 -36.4322 -36.4322 -36.4307 -36.4307 -36.4305 -36.4250 -36.4242
     9.4036  11.9682  12.5451  12.6954  12.7878  12.7879  12.8267  12.8485
    12.8485  12.8969  12.9009  12.9778  12.9778  13.2454  13.3696  14.0047
    14.0822  14.0822  14.2052  14.2052  14.2559  14.2559  14.2710  14.2722
    14.2816  14.2816  14.3475  14.4890  14.4890  14.6450  14.6450  14.7486
    15.0449  15.1862  15.2308  15.2371  15.3301  15.3434  15.3435  15.3504
    15.5112  15.5189  15.7355  15.8034  15.8034  15.8351  15.8918  15.9132
    16.0140  16.0619  16.0619  16.1055  16.2569  16.2813  16.3269  16.3269
    16.3353  16.3878  16.4070  16.4070  16.4469  16.4469  16.4700  16.4830
    16.5673  16.5673  16.5743  16.5743  16.6994  16.6994  16.8169  16.8388
    16.9016  16.9016  16.9427  17.2103  17.2813  17.3150  17.3390  17.3766
    17.3766  17.5360  17.6334  17.6830  17.6830  17.7698  18.2654  18.4137
    18.4137  18.6761

     occupation numbers 
     1.0000   1.0000   1.0000   1.0000   1.0000   1.0000   1.0000   1.0000
     1.0000   1.0000   1.0000   1.0000   1.0000   1.0000   1.0000   1.0000
     1.0000   1.0000   1.0000   1.0000   1.0000   1.0000   1.0000   1.0000
     1.0000   1.0000   1.0000   1.0000   1.0000   1.0000   1.0000   1.0000
     1.0000   1.0000   1.0000   1.0000   1.0000   1.0000   1.0000   1.0000
     1.0000   1.0000   1.0000   1.0000   1.0000   1.0000   1.0000   1.0000
     1.0000   1.0000   1.0000   1.0000   1.0000   1.0000   1.0000   1.0000
[...]
     0.0000   0.0000

          k =-0.5000-0.5000-0.5000 ( 18336 PWs)   bands (ev):

   -67.8725 -67.8725 -67.8725 -67.8725 -67.8724 -67.8724 -67.8724 -67.8724
   -67.8274 -67.8274 -67.8274 -67.8274 -67.8273 -67.8273 -67.8273 -67.8273
   -34.0856 -34.0856 -34.0856 -34.0856 -34.0856 -34.0856 -34.0856 -34.0856
   -34.0855 -34.0855 -34.0855 -34.0855 -34.0855 -34.0855 -34.0855 -34.0855
   -34.0557 -34.0557 -34.0557 -34.0557 -34.0557 -34.0557 -34.0557 -34.0556
   -33.8718 -33.8718 -33.8718 -33.8718 -33.8718 -33.8718 -33.8718 -33.8717
   -33.8402 -33.8402 -33.8402 -33.8402 -33.8402 -33.8402 -33.8402 -33.8402
   -33.8402 -33.8402 -33.8402 -33.8402 -33.8402 -33.8402 -33.8401 -33.8401
    12.6411  12.6412  12.6412  12.6412  12.6412  12.6412  12.6412  12.6412
    15.7440  15.7440  15.7440  15.7440  15.7440  15.7440  15.7440  15.7440
    15.7440  15.7440  15.7440  15.7440  15.7440  15.7440  15.7440  15.7440
    16.1436  16.1436  16.1436  16.1436  16.1436  16.1436  16.1436  16.1437
    16.2598  16.2598  16.2598  16.2598  16.2598  16.2598  16.2598  16.2598
    16.2598  16.2598  16.2598  16.2598  16.2598  16.2598  16.2598  16.2598
    19.1373  19.1373  19.1373  19.1374  19.1374  19.1374  19.1374  19.1374
    19.1374  19.1374  19.1374  19.1374  19.1374  19.1374  19.1374  19.1374
    19.1476  19.1476  19.1476  19.1476  19.1476  19.1476  19.1476  19.1476
    19.1477  19.1477  19.1477  19.1477  19.1477  19.1477  19.1477  19.1477
    19.4840  19.4840  19.4840  19.4840  19.4841  19.4841  19.4841  19.4841
    25.3689  25.3689

     occupation numbers 
     1.0000   1.0000   1.0000   1.0000   1.0000   1.0000   1.0000   1.0000
     1.0000   1.0000   1.0000   1.0000   1.0000   1.0000   1.0000   1.0000
     1.0000   1.0000   1.0000   1.0000   1.0000   1.0000   1.0000   1.0000
     1.0000   1.0000   1.0000   1.0000   1.0000   1.0000   1.0000   1.0000
     1.0000   1.0000   1.0000   1.0000   1.0000   1.0000   1.0000   1.0000
     1.0000   1.0000   1.0000   1.0000   1.0000   1.0000   1.0000   1.0000
     1.0000   1.0000   1.0000   1.0000   1.0000   1.0000   1.0000   1.0000
     1.0000   1.0000   1.0000   1.0000   1.0000   1.0000   1.0000   1.0000
     1.0000   1.0000   1.0000   1.0000   1.0000   1.0000   1.0000   1.0000
     1.0000   1.0000   1.0000   1.0000   1.0000   1.0000   1.0000   1.0000
     1.0000   1.0000   1.0000   1.0000   1.0000   1.0000   1.0000   1.0000
     1.0000   1.0000   1.0000   1.0000   1.0000   1.0000   1.0000   1.0000
     1.0000   1.0000   1.0000   1.0000   1.0000   1.0000   1.0000   1.0000
     1.0000   1.0000   1.0000   1.0000   1.0000   1.0000   1.0000   1.0000
     0.0000   0.0000   0.0000   0.0000   0.0000   0.0000   0.0000   0.0000
     0.0000   0.0000   0.0000   0.0000   0.0000   0.0000   0.0000   0.0000
     0.0000   0.0000   0.0000   0.0000   0.0000   0.0000   0.0000   0.0000
     0.0000   0.0000   0.0000   0.0000   0.0000   0.0000   0.0000   0.0000
     0.0000   0.0000   0.0000   0.0000   0.0000   0.0000   0.0000   0.0000
     0.0000   0.0000

     the Fermi energy is    17.4453 ev

!    total energy              =   -5268.31078752 Ry
     total all-electron energy =    -40729.055316 Ry
     estimated scf accuracy    <          8.9E-09 Ry
     smearing contrib. (-TS)   =       0.00079739 Ry
     internal energy E=F+TS    =   -5268.31158492 Ry

     The total energy is F=E-TS. E is the sum of the following terms:
     one-electron contribution =   -1809.30262163 Ry
     hartree contribution      =    1059.72945732 Ry
     xc contribution           =    -443.78519942 Ry
     ewald contribution        =   -2750.27871050 Ry
     one-center paw contrib.   =   -1324.67451068 Ry
      -> PAW hartree energy AE =     182.92297910 Ry
      -> PAW hartree energy PS =    -181.62533119 Ry
      -> PAW xc energy AE      =    -110.15620529 Ry
      -> PAW xc energy PS      =      26.06639802 Ry
      -> total E_H with PAW    =    1061.02710523 Ry
      -> total E_XC with PAW   =    -527.87500670 Ry

     total magnetization       =    35.52 Bohr mag/cell
     absolute magnetization    =    37.53 Bohr mag/cell

     convergence has been achieved in  25 iterations

     negative rho (up, down):  0.000E+00 7.858E-04

     Forces acting on atoms (cartesian axes, Ry/au):

     atom    1 type  1   force =     0.00000000    0.00000000    0.00000000
     atom    2 type  1   force =    -0.00000488   -0.00000488   -0.00000488
     atom    3 type  1   force =     0.00000000    0.00000000    0.00000000
     atom    4 type  1   force =    -0.00000488   -0.00000488    0.00000488
     atom    5 type  1   force =     0.00000000    0.00000000    0.00000000
     atom    6 type  1   force =    -0.00000488    0.00000488   -0.00000488
     atom    7 type  1   force =     0.00000000    0.00000000    0.00000000
     atom    8 type  1   force =    -0.00000488    0.00000488    0.00000488
     atom    9 type  1   force =     0.00000000    0.00000000    0.00000000
     atom   10 type  1   force =     0.00000488   -0.00000488   -0.00000488
     atom   11 type  1   force =     0.00000000    0.00000000    0.00000000
     atom   12 type  1   force =     0.00000488   -0.00000488    0.00000488
     atom   13 type  1   force =     0.00000000    0.00000000    0.00000000
     atom   14 type  1   force =     0.00000488    0.00000488   -0.00000488
     atom   15 type  1   force =     0.00000000    0.00000000    0.00000000
     atom   16 type  1   force =     0.00000488    0.00000488    0.00000488
     The non-local contrib.  to forces
     atom    1 type  1   force =     0.00000000    0.00000000    0.00000000
     atom    2 type  1   force =    -0.00000242   -0.00000242   -0.00000242
     atom    3 type  1   force =     0.00000000    0.00000000    0.00000000
     atom    4 type  1   force =    -0.00000242   -0.00000242    0.00000242
     atom    5 type  1   force =     0.00000000    0.00000000    0.00000000
     atom    6 type  1   force =    -0.00000242    0.00000242   -0.00000242
     atom    7 type  1   force =     0.00000000    0.00000000    0.00000000
     atom    8 type  1   force =    -0.00000242    0.00000242    0.00000242
     atom    9 type  1   force =     0.00000000    0.00000000    0.00000000
     atom   10 type  1   force =     0.00000242   -0.00000242   -0.00000242
     atom   11 type  1   force =     0.00000000    0.00000000    0.00000000
     atom   12 type  1   force =     0.00000242   -0.00000242    0.00000242
     atom   13 type  1   force =     0.00000000    0.00000000    0.00000000
     atom   14 type  1   force =     0.00000242    0.00000242   -0.00000242
     atom   15 type  1   force =     0.00000000    0.00000000    0.00000000
     atom   16 type  1   force =     0.00000242    0.00000242    0.00000242
     The ionic contribution  to forces
     atom    1 type  1   force =    -0.00000000   -0.00000000   -0.00000000
     atom    2 type  1   force =    -0.00000000   -0.00000000   -0.00000000
     atom    3 type  1   force =     0.00000000   -0.00000000    0.00000000
     atom    4 type  1   force =    -0.00000000   -0.00000000    0.00000000
     atom    5 type  1   force =    -0.00000000    0.00000000   -0.00000000
     atom    6 type  1   force =    -0.00000000    0.00000000   -0.00000000
     atom    7 type  1   force =     0.00000000    0.00000000    0.00000000
     atom    8 type  1   force =    -0.00000000    0.00000000    0.00000000
     atom    9 type  1   force =    -0.00000000   -0.00000000   -0.00000000
     atom   10 type  1   force =     0.00000000   -0.00000000   -0.00000000
     atom   11 type  1   force =    -0.00000000   -0.00000000    0.00000000
     atom   12 type  1   force =     0.00000000   -0.00000000    0.00000000
     atom   13 type  1   force =    -0.00000000    0.00000000   -0.00000000
     atom   14 type  1   force =     0.00000000    0.00000000   -0.00000000
     atom   15 type  1   force =     0.00000000    0.00000000    0.00000000
     atom   16 type  1   force =     0.00000000    0.00000000    0.00000000
     The local contribution  to forces
     atom    1 type  1   force =     0.00000000    0.00000000    0.00000000
     atom    2 type  1   force =    -0.00002920   -0.00002920   -0.00002920
     atom    3 type  1   force =     0.00000000    0.00000000    0.00000000
     atom    4 type  1   force =    -0.00002920   -0.00002920    0.00002920
     atom    5 type  1   force =     0.00000000    0.00000000    0.00000000
     atom    6 type  1   force =    -0.00002920    0.00002920   -0.00002920
     atom    7 type  1   force =     0.00000000    0.00000000    0.00000000
     atom    8 type  1   force =    -0.00002920    0.00002920    0.00002920
     atom    9 type  1   force =     0.00000000    0.00000000    0.00000000
     atom   10 type  1   force =     0.00002920   -0.00002920   -0.00002920
     atom   11 type  1   force =     0.00000000    0.00000000    0.00000000
     atom   12 type  1   force =     0.00002920   -0.00002920    0.00002920
     atom   13 type  1   force =     0.00000000    0.00000000    0.00000000
     atom   14 type  1   force =     0.00002920    0.00002920   -0.00002920
     atom   15 type  1   force =     0.00000000    0.00000000    0.00000000
     atom   16 type  1   force =     0.00002920    0.00002920    0.00002920
     The core correction contribution to forces
     atom    1 type  1   force =     0.00000000    0.00000000    0.00000000
     atom    2 type  1   force =    -0.00000016   -0.00000016   -0.00000016
     atom    3 type  1   force =     0.00000000    0.00000000   -0.00000000
     atom    4 type  1   force =    -0.00000016   -0.00000016    0.00000016
     atom    5 type  1   force =     0.00000000   -0.00000000    0.00000000
     atom    6 type  1   force =    -0.00000016    0.00000016   -0.00000016
     atom    7 type  1   force =     0.00000000   -0.00000000   -0.00000000
     atom    8 type  1   force =    -0.00000016    0.00000016    0.00000016
     atom    9 type  1   force =    -0.00000000    0.00000000    0.00000000
     atom   10 type  1   force =     0.00000016   -0.00000016   -0.00000016
     atom   11 type  1   force =    -0.00000000    0.00000000   -0.00000000
     atom   12 type  1   force =     0.00000016   -0.00000016    0.00000016
     atom   13 type  1   force =    -0.00000000   -0.00000000    0.00000000
     atom   14 type  1   force =     0.00000016    0.00000016   -0.00000016
     atom   15 type  1   force =    -0.00000000   -0.00000000   -0.00000000
     atom   16 type  1   force =     0.00000016    0.00000016    0.00000016
     The Hubbard contrib.    to forces
     atom    1 type  1   force =     0.00000000    0.00000000    0.00000000
     atom    2 type  1   force =     0.00000000    0.00000000    0.00000000
     atom    3 type  1   force =     0.00000000    0.00000000    0.00000000
     atom    4 type  1   force =     0.00000000    0.00000000    0.00000000
     atom    5 type  1   force =     0.00000000    0.00000000    0.00000000
     atom    6 type  1   force =     0.00000000    0.00000000    0.00000000
     atom    7 type  1   force =     0.00000000    0.00000000    0.00000000
     atom    8 type  1   force =     0.00000000    0.00000000    0.00000000
     atom    9 type  1   force =     0.00000000    0.00000000    0.00000000
     atom   10 type  1   force =     0.00000000    0.00000000    0.00000000
     atom   11 type  1   force =     0.00000000    0.00000000    0.00000000
     atom   12 type  1   force =     0.00000000    0.00000000    0.00000000
     atom   13 type  1   force =     0.00000000    0.00000000    0.00000000
     atom   14 type  1   force =     0.00000000    0.00000000    0.00000000
     atom   15 type  1   force =     0.00000000    0.00000000    0.00000000
     atom   16 type  1   force =     0.00000000    0.00000000    0.00000000
     The SCF correction term to forces
     atom    1 type  1   force =    -0.00000000   -0.00000000    0.00000000
     atom    2 type  1   force =     0.00002689    0.00002689    0.00002689
     atom    3 type  1   force =    -0.00000000    0.00000000    0.00000000
     atom    4 type  1   force =     0.00002689    0.00002689   -0.00002689
     atom    5 type  1   force =     0.00000000    0.00000000    0.00000000
     atom    6 type  1   force =     0.00002689   -0.00002689    0.00002689
     atom    7 type  1   force =    -0.00000000   -0.00000000    0.00000000
     atom    8 type  1   force =     0.00002689   -0.00002689   -0.00002689
     atom    9 type  1   force =    -0.00000000    0.00000000    0.00000000
     atom   10 type  1   force =    -0.00002689    0.00002689    0.00002689
     atom   11 type  1   force =    -0.00000000    0.00000000    0.00000000
     atom   12 type  1   force =    -0.00002689    0.00002689   -0.00002689
     atom   13 type  1   force =    -0.00000000   -0.00000000    0.00000000
     atom   14 type  1   force =    -0.00002689   -0.00002689    0.00002689
     atom   15 type  1   force =    -0.00000000   -0.00000000    0.00000000
     atom   16 type  1   force =    -0.00002689   -0.00002689   -0.00002689

     Total force =     0.000024     Total SCF correction =     0.000132
     SCF correction compared to forces is large: reduce conv_thr to get better values


     Computing stress (Cartesian axis) and pressure


     negative rho (up, down):  0.000E+00 7.858E-04
          total   stress  (Ry/bohr**3)                   (kbar)     P=      -72.13
  -0.00049031   0.00000000   0.00000000          -72.13        0.00        0.00
   0.00000000  -0.00049031   0.00000000            0.00      -72.13        0.00
   0.00000000   0.00000000  -0.00049031            0.00        0.00      -72.13

     kinetic stress (kbar)  95423.56      0.00      0.00
                                0.00  95423.56      0.00
                                0.00      0.00  95423.56

     local   stress (kbar)  12108.37      0.00     -0.00
                                0.00  12108.37     -0.00
                               -0.00     -0.00  12108.37

     nonloc. stress (kbar) -26161.92      0.00      0.00
                                0.00 -26161.92      0.00
                                0.00      0.00 -26161.92

     hartree stress (kbar)  40797.35      0.00      0.00
                                0.00  40797.35      0.00
                                0.00      0.00  40797.35

     exc-cor stress (kbar) -13739.73      0.00      0.00
                                0.00 -13739.73      0.00
                                0.00      0.00 -13739.73

     corecor stress (kbar)  -2619.82     -0.00      0.00
                               -0.00  -2619.82      0.00
                                0.00      0.00  -2619.82

     ewald   stress (kbar)-105879.93     -0.00      0.00
                               -0.00-105879.93      0.00
                                0.00      0.00-105879.93

     hubbard stress (kbar)      0.00      0.00      0.00
                                0.00      0.00      0.00
                                0.00      0.00      0.00

     DFT-D   stress (kbar)      0.00      0.00      0.00
                                0.00      0.00      0.00
                                0.00      0.00      0.00

     XDM     stress (kbar)      0.00      0.00      0.00
                                0.00      0.00      0.00
                                0.00      0.00      0.00

     dft-nl  stress (kbar)      0.00      0.00      0.00
                                0.00      0.00      0.00
                                0.00      0.00      0.00

     TS-vdW  stress (kbar)      0.00      0.00      0.00
                                0.00      0.00      0.00
                                0.00      0.00      0.00

     MDB     stress (kbar)      0.00      0.00      0.00
                                0.00      0.00      0.00
                                0.00      0.00      0.00

     3D-RISM stress (kbar)      0.00      0.00      0.00
                                0.00      0.00      0.00
                                0.00      0.00      0.00

     Message from routine punch:
     Nothing written, as per user request (disk_io='none')

     init_run     :      9.13s CPU      9.99s WALL (       1 calls)
     electrons    :    573.87s CPU    633.15s WALL (       1 calls)
     forces       :      3.80s CPU      4.01s WALL (       1 calls)
     stress       :     55.91s CPU     56.91s WALL (       1 calls)

     Called by init_run:
     wfcinit      :      6.81s CPU      7.47s WALL (       1 calls)
     wfcinit:atom :      0.05s CPU      0.05s WALL (      28 calls)
     wfcinit:wfcr :      6.17s CPU      6.82s WALL (      28 calls)
     potinit      :      1.05s CPU      1.16s WALL (       1 calls)
     hinit0       :      0.90s CPU      0.93s WALL (       1 calls)

     Called by electrons:
     c_bands      :    482.49s CPU    530.09s WALL (      25 calls)
     sum_band     :     73.47s CPU     82.21s WALL (      25 calls)
     v_of_rho     :      9.92s CPU     11.76s WALL (      26 calls)
     v_h          :      0.22s CPU      0.26s WALL (      26 calls)
     v_xc         :     10.46s CPU     12.39s WALL (      28 calls)
     newd         :      2.75s CPU      3.45s WALL (      26 calls)
     PAW_pot      :      4.55s CPU      4.75s WALL (      26 calls)
     mix_rho      :      0.44s CPU      0.54s WALL (      25 calls)

     Called by c_bands:
     init_us_2    :      9.55s CPU      9.71s WALL (    1484 calls)
     cegterg      :    436.41s CPU    478.58s WALL (     700 calls)

     Called by sum_band:
     sum_band:wei :      0.11s CPU      0.12s WALL (      25 calls)
     sum_band:loo :     68.00s CPU     75.72s WALL (      25 calls)
     sum_band:buf :      0.88s CPU      1.16s WALL (     700 calls)
     sum_band:ini :      2.22s CPU      2.25s WALL (     700 calls)
     sum_band:cal :     15.09s CPU     15.67s WALL (     700 calls)
     sum_band:bec :      0.27s CPU      0.28s WALL (     700 calls)
     addusdens    :      4.45s CPU      5.21s WALL (      25 calls)
                                        0.00s GPU  (      25 calls)
     addusd:skk   :      0.05s CPU      0.06s WALL (      25 calls)
                                        0.00s GPU  (      25 calls)

     Called by *egterg:
     cdiaghg      :     33.59s CPU     36.64s WALL (    2794 calls)
     cegterg:over :     38.65s CPU     40.00s WALL (    2094 calls)
     cegterg:upda :     25.93s CPU     26.93s WALL (    2094 calls)
     cegterg:last :     49.66s CPU     51.17s WALL (    1251 calls)
     cdiaghg:chol :      2.11s CPU      2.37s WALL (    2794 calls)
     cdiaghg:inve :      0.57s CPU      0.60s WALL (    2794 calls)
     cdiaghg:para :      7.89s CPU      9.21s WALL (    5588 calls)
     h_psi        :    241.78s CPU    272.34s WALL (    2822 calls)
     s_psi        :     30.61s CPU     30.90s WALL (    2822 calls)
     g_psi        :      1.32s CPU      1.36s WALL (    2094 calls)

     Called by h_psi:
     h_psi:calbec :     33.60s CPU     34.90s WALL (    2822 calls)
     vloc_psi     :    174.80s CPU    200.23s WALL (    2822 calls)
     add_vuspsi   :     30.73s CPU     30.99s WALL (    2822 calls)

     General routines
     calbec       :     52.00s CPU     54.02s WALL (    3662 calls)
     fft          :      4.76s CPU      5.63s WALL (     688 calls)
     ffts         :      0.54s CPU      0.57s WALL (     102 calls)
     fftw         :    166.96s CPU    191.83s WALL (  589440 calls)
     interpolate  :      0.83s CPU      0.89s WALL (      52 calls)

     Parallel routines

     PAW routines
     PAW_pot      :      4.55s CPU      4.75s WALL (      26 calls)
     PAW_symme    :      0.03s CPU      0.04s WALL (      51 calls)

     PWSCF        :    642.91s CPU    704.47s WALL


   This run was terminated on:  11:30:19  24May2025            

=------------------------------------------------------------------------------=
   JOB DONE.
=------------------------------------------------------------------------------=
