
     Program PWSCF v.7.3.1 starts on  3Jun2025 at 19: 7:44 

     This program is part of the open-source Quantum ESPRESSO suite
     for quantum simulation of materials; please cite
         "P. Giannozzi et al., J. Phys.:Condens. Matter 21 395502 (2009);
         "P. Giannozzi et al., J. Phys.:Condens. Matter 29 465901 (2017);
         "P. Giannozzi et al., J. Chem. Phys. 152 154105 (2020);
          URL http://www.quantum-espresso.org", 
     in publications or presentations arising from this work. More details at
     http://www.quantum-espresso.org/quote

     Parallel version (MPI & OpenMP), running on     128 processor cores
     Number of MPI processes:               128
     Threads/MPI process:                     1

     MPI processes distributed on     1 nodes
     446150 MiB available memory on the printing compute node when the environment starts

     Waiting for input...
     Reading input from standard input

     Current dimensions of program PWSCF are:
     Max number of different atomic species (ntypx) = 10
     Max number of k-points (npk) =  40000
     Max angular momentum in pseudopotentials (lmaxx) =  4
     Found identity + (  0.1667  0.1667  0.1667) symmetry
     This is a supercell, fractional translations are disabled
     Message from routine setup:
     using ibrav=0 with symmetry is DISCOURAGED, use correct ibrav instead

     K-points division:     npool     =       8
     R & G space division:  proc/nbgrp/npool/nimage =      16
     Subspace diagonalization in iterative solution of the eigenvalue problem:
     one sub-group per band group will be used
     ELPA distributed-memory algorithm (size of sub-group:  4*  4 procs)


     Parallelization info
     --------------------
     sticks:   dense  smooth     PW     G-vecs:    dense   smooth      PW
     Min        1420     473    126               161001    30976    4292
     Max        1422     475    127               161002    30980    4295
     Sum       22725    7589   2025              2576031   495639   68699

     Using Slab Decomposition



     bravais-lattice index     =            0
     lattice parameter (alat)  =      16.2598  a.u.
     unit-cell volume          =    4298.7603 (a.u.)^3
     number of atoms/cell      =           54
     number of atomic types    =            1
     number of electrons       =       864.00
     number of Kohn-Sham states=          518
     kinetic-energy cutoff     =      90.0000  Ry
     charge density cutoff     =    1080.0000  Ry
     scf convergence threshold =      1.0E-08
     mixing beta               =       0.2000
     number of iterations used =            8  plain     mixing
     energy convergence thresh.=      1.0E-04
     force convergence thresh. =      1.0E-03
     Exchange-correlation= PBE
                           (   1   4   3   4   0   0   0)
     nstep                     =           50


     celldm(1)=  16.259770  celldm(2)=   0.000000  celldm(3)=   0.000000
     celldm(4)=   0.000000  celldm(5)=   0.000000  celldm(6)=   0.000000

     crystal axes: (cart. coord. in units of alat)
               a(1) = (   1.000000   0.000000   0.000000 )  
               a(2) = (   0.000000   1.000000   0.000000 )  
               a(3) = (   0.000000   0.000000   1.000000 )  

     reciprocal axes: (cart. coord. in units 2 pi/alat)
               b(1) = (  1.000000  0.000000  0.000000 )  
               b(2) = (  0.000000  1.000000  0.000000 )  
               b(3) = (  0.000000  0.000000  1.000000 )  


     PseudoPot. # 1 for Fe read from file:
     ./pseudo/Fe.pbe-spn-rrkjus_psl.0.2.1.UPF
     MD5 check sum: f9af58635850a145d9bd408d58feeb93
     Pseudo is Ultrasoft + core correction, Zval = 16.0
     Generated using "atomic" code by A. Dal Corso  v.5.0.2 svn rev. 9415
     Using radial grid of 1191 points,  6 beta functions with: 
                l(1) =   0
                l(2) =   0
                l(3) =   1
                l(4) =   1
                l(5) =   2
                l(6) =   2
     Q(r) pseudized with 0 coefficients 


     atomic species   valence    mass     pseudopotential
     Fe               16.00    55.84500     Fe( 1.00)

     48 Sym. Ops., with inversion, found


                                    s                        frac. trans.

      isym =  1     identity                                     

 cryst.   s( 1) = (     1          0          0      )
                  (     0          1          0      )
                  (     0          0          1      )

 cart.    s( 1) = (  1.0000000  0.0000000  0.0000000 )
                  (  0.0000000  1.0000000  0.0000000 )
                  (  0.0000000  0.0000000  1.0000000 )


      isym =  2     180 deg rotation - cart. axis [0,0,1]        

 cryst.   s( 2) = (    -1          0          0      )
                  (     0         -1          0      )
                  (     0          0          1      )

 cart.    s( 2) = ( -1.0000000  0.0000000  0.0000000 )
                  (  0.0000000 -1.0000000  0.0000000 )
                  (  0.0000000  0.0000000  1.0000000 )


      isym =  3     180 deg rotation - cart. axis [0,1,0]        

 cryst.   s( 3) = (    -1          0          0      )
                  (     0          1          0      )
                  (     0          0         -1      )

 cart.    s( 3) = ( -1.0000000  0.0000000  0.0000000 )
                  (  0.0000000  1.0000000  0.0000000 )
                  (  0.0000000  0.0000000 -1.0000000 )


      isym =  4     180 deg rotation - cart. axis [1,0,0]        

 cryst.   s( 4) = (     1          0          0      )
                  (     0         -1          0      )
                  (     0          0         -1      )

 cart.    s( 4) = (  1.0000000  0.0000000  0.0000000 )
                  (  0.0000000 -1.0000000  0.0000000 )
                  (  0.0000000  0.0000000 -1.0000000 )


      isym =  5     180 deg rotation - cart. axis [1,1,0]        

 cryst.   s( 5) = (     0          1          0      )
                  (     1          0          0      )
                  (     0          0         -1      )

 cart.    s( 5) = (  0.0000000  1.0000000  0.0000000 )
                  (  1.0000000  0.0000000  0.0000000 )
                  (  0.0000000  0.0000000 -1.0000000 )


      isym =  6     180 deg rotation - cart. axis [1,-1,0]       

 cryst.   s( 6) = (     0         -1          0      )
                  (    -1          0          0      )
                  (     0          0         -1      )

 cart.    s( 6) = (  0.0000000 -1.0000000  0.0000000 )
                  ( -1.0000000  0.0000000  0.0000000 )
                  (  0.0000000  0.0000000 -1.0000000 )


      isym =  7      90 deg rotation - cart. axis [0,0,-1]       

 cryst.   s( 7) = (     0         -1          0      )
                  (     1          0          0      )
                  (     0          0          1      )

 cart.    s( 7) = (  0.0000000  1.0000000  0.0000000 )
                  ( -1.0000000  0.0000000  0.0000000 )
                  (  0.0000000  0.0000000  1.0000000 )


      isym =  8      90 deg rotation - cart. axis [0,0,1]        

 cryst.   s( 8) = (     0          1          0      )
                  (    -1          0          0      )
                  (     0          0          1      )

 cart.    s( 8) = (  0.0000000 -1.0000000  0.0000000 )
                  (  1.0000000  0.0000000  0.0000000 )
                  (  0.0000000  0.0000000  1.0000000 )


      isym =  9     180 deg rotation - cart. axis [1,0,1]        

 cryst.   s( 9) = (     0          0          1      )
                  (     0         -1          0      )
                  (     1          0          0      )

 cart.    s( 9) = (  0.0000000  0.0000000  1.0000000 )
                  (  0.0000000 -1.0000000  0.0000000 )
                  (  1.0000000  0.0000000  0.0000000 )


      isym = 10     180 deg rotation - cart. axis [-1,0,1]       

 cryst.   s(10) = (     0          0         -1      )
                  (     0         -1          0      )
                  (    -1          0          0      )

 cart.    s(10) = (  0.0000000  0.0000000 -1.0000000 )
                  (  0.0000000 -1.0000000  0.0000000 )
                  ( -1.0000000  0.0000000  0.0000000 )


      isym = 11      90 deg rotation - cart. axis [0,1,0]        

 cryst.   s(11) = (     0          0         -1      )
                  (     0          1          0      )
                  (     1          0          0      )

 cart.    s(11) = (  0.0000000  0.0000000  1.0000000 )
                  (  0.0000000  1.0000000  0.0000000 )
                  ( -1.0000000  0.0000000  0.0000000 )


      isym = 12      90 deg rotation - cart. axis [0,-1,0]       

 cryst.   s(12) = (     0          0          1      )
                  (     0          1          0      )
                  (    -1          0          0      )

 cart.    s(12) = (  0.0000000  0.0000000 -1.0000000 )
                  (  0.0000000  1.0000000  0.0000000 )
                  (  1.0000000  0.0000000  0.0000000 )


      isym = 13     180 deg rotation - cart. axis [0,1,1]        

 cryst.   s(13) = (    -1          0          0      )
                  (     0          0          1      )
                  (     0          1          0      )

 cart.    s(13) = ( -1.0000000  0.0000000  0.0000000 )
                  (  0.0000000  0.0000000  1.0000000 )
                  (  0.0000000  1.0000000  0.0000000 )


      isym = 14     180 deg rotation - cart. axis [0,1,-1]       

 cryst.   s(14) = (    -1          0          0      )
                  (     0          0         -1      )
                  (     0         -1          0      )

 cart.    s(14) = ( -1.0000000  0.0000000  0.0000000 )
                  (  0.0000000  0.0000000 -1.0000000 )
                  (  0.0000000 -1.0000000  0.0000000 )


      isym = 15      90 deg rotation - cart. axis [-1,0,0]       

 cryst.   s(15) = (     1          0          0      )
                  (     0          0         -1      )
                  (     0          1          0      )

 cart.    s(15) = (  1.0000000  0.0000000  0.0000000 )
                  (  0.0000000  0.0000000  1.0000000 )
                  (  0.0000000 -1.0000000  0.0000000 )


      isym = 16      90 deg rotation - cart. axis [1,0,0]        

 cryst.   s(16) = (     1          0          0      )
                  (     0          0          1      )
                  (     0         -1          0      )

 cart.    s(16) = (  1.0000000  0.0000000  0.0000000 )
                  (  0.0000000  0.0000000 -1.0000000 )
                  (  0.0000000  1.0000000  0.0000000 )


      isym = 17     120 deg rotation - cart. axis [-1,-1,-1]     

 cryst.   s(17) = (     0          0          1      )
                  (     1          0          0      )
                  (     0          1          0      )

 cart.    s(17) = (  0.0000000  1.0000000  0.0000000 )
                  (  0.0000000  0.0000000  1.0000000 )
                  (  1.0000000  0.0000000  0.0000000 )


      isym = 18     120 deg rotation - cart. axis [-1,1,1]       

 cryst.   s(18) = (     0          0         -1      )
                  (    -1          0          0      )
                  (     0          1          0      )

 cart.    s(18) = (  0.0000000 -1.0000000  0.0000000 )
                  (  0.0000000  0.0000000  1.0000000 )
                  ( -1.0000000  0.0000000  0.0000000 )


      isym = 19     120 deg rotation - cart. axis [1,1,-1]       

 cryst.   s(19) = (     0          0         -1      )
                  (     1          0          0      )
                  (     0         -1          0      )

 cart.    s(19) = (  0.0000000  1.0000000  0.0000000 )
                  (  0.0000000  0.0000000 -1.0000000 )
                  ( -1.0000000  0.0000000  0.0000000 )


      isym = 20     120 deg rotation - cart. axis [1,-1,1]       

 cryst.   s(20) = (     0          0          1      )
                  (    -1          0          0      )
                  (     0         -1          0      )

 cart.    s(20) = (  0.0000000 -1.0000000  0.0000000 )
                  (  0.0000000  0.0000000 -1.0000000 )
                  (  1.0000000  0.0000000  0.0000000 )


      isym = 21     120 deg rotation - cart. axis [1,1,1]        

 cryst.   s(21) = (     0          1          0      )
                  (     0          0          1      )
                  (     1          0          0      )

 cart.    s(21) = (  0.0000000  0.0000000  1.0000000 )
                  (  1.0000000  0.0000000  0.0000000 )
                  (  0.0000000  1.0000000  0.0000000 )


      isym = 22     120 deg rotation - cart. axis [-1,1,-1]      

 cryst.   s(22) = (     0         -1          0      )
                  (     0          0         -1      )
                  (     1          0          0      )

 cart.    s(22) = (  0.0000000  0.0000000  1.0000000 )
                  ( -1.0000000  0.0000000  0.0000000 )
                  (  0.0000000 -1.0000000  0.0000000 )


      isym = 23     120 deg rotation - cart. axis [1,-1,-1]      

 cryst.   s(23) = (     0         -1          0      )
                  (     0          0          1      )
                  (    -1          0          0      )

 cart.    s(23) = (  0.0000000  0.0000000 -1.0000000 )
                  ( -1.0000000  0.0000000  0.0000000 )
                  (  0.0000000  1.0000000  0.0000000 )


      isym = 24     120 deg rotation - cart. axis [-1,-1,1]      

 cryst.   s(24) = (     0          1          0      )
                  (     0          0         -1      )
                  (    -1          0          0      )

 cart.    s(24) = (  0.0000000  0.0000000 -1.0000000 )
                  (  1.0000000  0.0000000  0.0000000 )
                  (  0.0000000 -1.0000000  0.0000000 )


      isym = 25     inversion                                    

 cryst.   s(25) = (    -1          0          0      )
                  (     0         -1          0      )
                  (     0          0         -1      )

 cart.    s(25) = ( -1.0000000  0.0000000  0.0000000 )
                  (  0.0000000 -1.0000000  0.0000000 )
                  (  0.0000000  0.0000000 -1.0000000 )


      isym = 26     inv. 180 deg rotation - cart. axis [0,0,1]   

 cryst.   s(26) = (     1          0          0      )
                  (     0          1          0      )
                  (     0          0         -1      )

 cart.    s(26) = (  1.0000000  0.0000000  0.0000000 )
                  (  0.0000000  1.0000000  0.0000000 )
                  (  0.0000000  0.0000000 -1.0000000 )


      isym = 27     inv. 180 deg rotation - cart. axis [0,1,0]   

 cryst.   s(27) = (     1          0          0      )
                  (     0         -1          0      )
                  (     0          0          1      )

 cart.    s(27) = (  1.0000000  0.0000000  0.0000000 )
                  (  0.0000000 -1.0000000  0.0000000 )
                  (  0.0000000  0.0000000  1.0000000 )


      isym = 28     inv. 180 deg rotation - cart. axis [1,0,0]   

 cryst.   s(28) = (    -1          0          0      )
                  (     0          1          0      )
                  (     0          0          1      )

 cart.    s(28) = ( -1.0000000  0.0000000  0.0000000 )
                  (  0.0000000  1.0000000  0.0000000 )
                  (  0.0000000  0.0000000  1.0000000 )


      isym = 29     inv. 180 deg rotation - cart. axis [1,1,0]   

 cryst.   s(29) = (     0         -1          0      )
                  (    -1          0          0      )
                  (     0          0          1      )

 cart.    s(29) = (  0.0000000 -1.0000000  0.0000000 )
                  ( -1.0000000  0.0000000  0.0000000 )
                  (  0.0000000  0.0000000  1.0000000 )


      isym = 30     inv. 180 deg rotation - cart. axis [1,-1,0]  

 cryst.   s(30) = (     0          1          0      )
                  (     1          0          0      )
                  (     0          0          1      )

 cart.    s(30) = (  0.0000000  1.0000000  0.0000000 )
                  (  1.0000000  0.0000000  0.0000000 )
                  (  0.0000000  0.0000000  1.0000000 )


      isym = 31     inv.  90 deg rotation - cart. axis [0,0,-1]  

 cryst.   s(31) = (     0          1          0      )
                  (    -1          0          0      )
                  (     0          0         -1      )

 cart.    s(31) = (  0.0000000 -1.0000000  0.0000000 )
                  (  1.0000000  0.0000000  0.0000000 )
                  (  0.0000000  0.0000000 -1.0000000 )


      isym = 32     inv.  90 deg rotation - cart. axis [0,0,1]   

 cryst.   s(32) = (     0         -1          0      )
                  (     1          0          0      )
                  (     0          0         -1      )

 cart.    s(32) = (  0.0000000  1.0000000  0.0000000 )
                  ( -1.0000000  0.0000000  0.0000000 )
                  (  0.0000000  0.0000000 -1.0000000 )


      isym = 33     inv. 180 deg rotation - cart. axis [1,0,1]   

 cryst.   s(33) = (     0          0         -1      )
                  (     0          1          0      )
                  (    -1          0          0      )

 cart.    s(33) = (  0.0000000  0.0000000 -1.0000000 )
                  (  0.0000000  1.0000000  0.0000000 )
                  ( -1.0000000  0.0000000  0.0000000 )


      isym = 34     inv. 180 deg rotation - cart. axis [-1,0,1]  

 cryst.   s(34) = (     0          0          1      )
                  (     0          1          0      )
                  (     1          0          0      )

 cart.    s(34) = (  0.0000000  0.0000000  1.0000000 )
                  (  0.0000000  1.0000000  0.0000000 )
                  (  1.0000000  0.0000000  0.0000000 )


      isym = 35     inv.  90 deg rotation - cart. axis [0,1,0]   

 cryst.   s(35) = (     0          0          1      )
                  (     0         -1          0      )
                  (    -1          0          0      )

 cart.    s(35) = (  0.0000000  0.0000000 -1.0000000 )
                  (  0.0000000 -1.0000000  0.0000000 )
                  (  1.0000000  0.0000000  0.0000000 )


      isym = 36     inv.  90 deg rotation - cart. axis [0,-1,0]  

 cryst.   s(36) = (     0          0         -1      )
                  (     0         -1          0      )
                  (     1          0          0      )

 cart.    s(36) = (  0.0000000  0.0000000  1.0000000 )
                  (  0.0000000 -1.0000000  0.0000000 )
                  ( -1.0000000  0.0000000  0.0000000 )


      isym = 37     inv. 180 deg rotation - cart. axis [0,1,1]   

 cryst.   s(37) = (     1          0          0      )
                  (     0          0         -1      )
                  (     0         -1          0      )

 cart.    s(37) = (  1.0000000  0.0000000  0.0000000 )
                  (  0.0000000  0.0000000 -1.0000000 )
                  (  0.0000000 -1.0000000  0.0000000 )


      isym = 38     inv. 180 deg rotation - cart. axis [0,1,-1]  

 cryst.   s(38) = (     1          0          0      )
                  (     0          0          1      )
                  (     0          1          0      )

 cart.    s(38) = (  1.0000000  0.0000000  0.0000000 )
                  (  0.0000000  0.0000000  1.0000000 )
                  (  0.0000000  1.0000000  0.0000000 )


      isym = 39     inv.  90 deg rotation - cart. axis [-1,0,0]  

 cryst.   s(39) = (    -1          0          0      )
                  (     0          0          1      )
                  (     0         -1          0      )

 cart.    s(39) = ( -1.0000000  0.0000000  0.0000000 )
                  (  0.0000000  0.0000000 -1.0000000 )
                  (  0.0000000  1.0000000  0.0000000 )


      isym = 40     inv.  90 deg rotation - cart. axis [1,0,0]   

 cryst.   s(40) = (    -1          0          0      )
                  (     0          0         -1      )
                  (     0          1          0      )

 cart.    s(40) = ( -1.0000000  0.0000000  0.0000000 )
                  (  0.0000000  0.0000000  1.0000000 )
                  (  0.0000000 -1.0000000  0.0000000 )


      isym = 41     inv. 120 deg rotation - cart. axis [-1,-1,-1]

 cryst.   s(41) = (     0          0         -1      )
                  (    -1          0          0      )
                  (     0         -1          0      )

 cart.    s(41) = (  0.0000000 -1.0000000  0.0000000 )
                  (  0.0000000  0.0000000 -1.0000000 )
                  ( -1.0000000  0.0000000  0.0000000 )


      isym = 42     inv. 120 deg rotation - cart. axis [-1,1,1]  

 cryst.   s(42) = (     0          0          1      )
                  (     1          0          0      )
                  (     0         -1          0      )

 cart.    s(42) = (  0.0000000  1.0000000  0.0000000 )
                  (  0.0000000  0.0000000 -1.0000000 )
                  (  1.0000000  0.0000000  0.0000000 )


      isym = 43     inv. 120 deg rotation - cart. axis [1,1,-1]  

 cryst.   s(43) = (     0          0          1      )
                  (    -1          0          0      )
                  (     0          1          0      )

 cart.    s(43) = (  0.0000000 -1.0000000  0.0000000 )
                  (  0.0000000  0.0000000  1.0000000 )
                  (  1.0000000  0.0000000  0.0000000 )


      isym = 44     inv. 120 deg rotation - cart. axis [1,-1,1]  

 cryst.   s(44) = (     0          0         -1      )
                  (     1          0          0      )
                  (     0          1          0      )

 cart.    s(44) = (  0.0000000  1.0000000  0.0000000 )
                  (  0.0000000  0.0000000  1.0000000 )
                  ( -1.0000000  0.0000000  0.0000000 )


      isym = 45     inv. 120 deg rotation - cart. axis [1,1,1]   

 cryst.   s(45) = (     0         -1          0      )
                  (     0          0         -1      )
                  (    -1          0          0      )

 cart.    s(45) = (  0.0000000  0.0000000 -1.0000000 )
                  ( -1.0000000  0.0000000  0.0000000 )
                  (  0.0000000 -1.0000000  0.0000000 )


      isym = 46     inv. 120 deg rotation - cart. axis [-1,1,-1] 

 cryst.   s(46) = (     0          1          0      )
                  (     0          0          1      )
                  (    -1          0          0      )

 cart.    s(46) = (  0.0000000  0.0000000 -1.0000000 )
                  (  1.0000000  0.0000000  0.0000000 )
                  (  0.0000000  1.0000000  0.0000000 )


      isym = 47     inv. 120 deg rotation - cart. axis [1,-1,-1] 

 cryst.   s(47) = (     0          1          0      )
                  (     0          0         -1      )
                  (     1          0          0      )

 cart.    s(47) = (  0.0000000  0.0000000  1.0000000 )
                  (  1.0000000  0.0000000  0.0000000 )
                  (  0.0000000 -1.0000000  0.0000000 )


      isym = 48     inv. 120 deg rotation - cart. axis [-1,-1,1] 

 cryst.   s(48) = (     0         -1          0      )
                  (     0          0          1      )
                  (     1          0          0      )

 cart.    s(48) = (  0.0000000  0.0000000  1.0000000 )
                  ( -1.0000000  0.0000000  0.0000000 )
                  (  0.0000000  1.0000000  0.0000000 )


   Cartesian axes

     site n.     atom                  positions (alat units)
         1        Fe     tau(   1) = (   0.0000000   0.0000000   0.0000000  )
         2        Fe     tau(   2) = (   0.1666667   0.1666667   0.1666667  )
         3        Fe     tau(   3) = (   0.0000000   0.0000000   0.3333333  )
         4        Fe     tau(   4) = (   0.1666667   0.1666667   0.5000000  )
         5        Fe     tau(   5) = (   0.0000000   0.0000000   0.6666667  )
         6        Fe     tau(   6) = (   0.1666667   0.1666667   0.8333333  )
         7        Fe     tau(   7) = (   0.0000000   0.3333333   0.0000000  )
         8        Fe     tau(   8) = (   0.1666667   0.5000000   0.1666667  )
         9        Fe     tau(   9) = (   0.0000000   0.3333333   0.3333333  )
        10        Fe     tau(  10) = (   0.1666667   0.5000000   0.5000000  )
        11        Fe     tau(  11) = (   0.0000000   0.3333333   0.6666667  )
        12        Fe     tau(  12) = (   0.1666667   0.5000000   0.8333333  )
        13        Fe     tau(  13) = (   0.0000000   0.6666667   0.0000000  )
        14        Fe     tau(  14) = (   0.1666667   0.8333333   0.1666667  )
        15        Fe     tau(  15) = (   0.0000000   0.6666667   0.3333333  )
        16        Fe     tau(  16) = (   0.1666667   0.8333333   0.5000000  )
        17        Fe     tau(  17) = (   0.0000000   0.6666667   0.6666667  )
        18        Fe     tau(  18) = (   0.1666667   0.8333333   0.8333333  )
        19        Fe     tau(  19) = (   0.3333333   0.0000000   0.0000000  )
        20        Fe     tau(  20) = (   0.5000000   0.1666667   0.1666667  )
        21        Fe     tau(  21) = (   0.3333333   0.0000000   0.3333333  )
        22        Fe     tau(  22) = (   0.5000000   0.1666667   0.5000000  )
        23        Fe     tau(  23) = (   0.3333333   0.0000000   0.6666667  )
        24        Fe     tau(  24) = (   0.5000000   0.1666667   0.8333333  )
        25        Fe     tau(  25) = (   0.3333333   0.3333333   0.0000000  )
        26        Fe     tau(  26) = (   0.5000000   0.5000000   0.1666667  )
        27        Fe     tau(  27) = (   0.3333333   0.3333333   0.3333333  )
        28        Fe     tau(  28) = (   0.5000000   0.5000000   0.5000000  )
        29        Fe     tau(  29) = (   0.3333333   0.3333333   0.6666667  )
        30        Fe     tau(  30) = (   0.5000000   0.5000000   0.8333333  )
        31        Fe     tau(  31) = (   0.3333333   0.6666667   0.0000000  )
        32        Fe     tau(  32) = (   0.5000000   0.8333333   0.1666667  )
        33        Fe     tau(  33) = (   0.3333333   0.6666667   0.3333333  )
        34        Fe     tau(  34) = (   0.5000000   0.8333333   0.5000000  )
        35        Fe     tau(  35) = (   0.3333333   0.6666667   0.6666667  )
        36        Fe     tau(  36) = (   0.5000000   0.8333333   0.8333333  )
        37        Fe     tau(  37) = (   0.6666667   0.0000000   0.0000000  )
        38        Fe     tau(  38) = (   0.8333333   0.1666667   0.1666667  )
        39        Fe     tau(  39) = (   0.6666667   0.0000000   0.3333333  )
        40        Fe     tau(  40) = (   0.8333333   0.1666667   0.5000000  )
        41        Fe     tau(  41) = (   0.6666667   0.0000000   0.6666667  )
        42        Fe     tau(  42) = (   0.8333333   0.1666667   0.8333333  )
        43        Fe     tau(  43) = (   0.6666667   0.3333333   0.0000000  )
        44        Fe     tau(  44) = (   0.8333333   0.5000000   0.1666667  )
        45        Fe     tau(  45) = (   0.6666667   0.3333333   0.3333333  )
        46        Fe     tau(  46) = (   0.8333333   0.5000000   0.5000000  )
        47        Fe     tau(  47) = (   0.6666667   0.3333333   0.6666667  )
        48        Fe     tau(  48) = (   0.8333333   0.5000000   0.8333333  )
        49        Fe     tau(  49) = (   0.6666667   0.6666667   0.0000000  )
        50        Fe     tau(  50) = (   0.8333333   0.8333333   0.1666667  )
        51        Fe     tau(  51) = (   0.6666667   0.6666667   0.3333333  )
        52        Fe     tau(  52) = (   0.8333333   0.8333333   0.5000000  )
        53        Fe     tau(  53) = (   0.6666667   0.6666667   0.6666667  )
        54        Fe     tau(  54) = (   0.8333333   0.8333333   0.8333333  )

   Crystallographic axes

     site n.     atom                  positions (cryst. coord.)
         1        Fe     tau(   1) = (  0.0000000  0.0000000  0.0000000  )
         2        Fe     tau(   2) = (  0.1666667  0.1666667  0.1666667  )
         3        Fe     tau(   3) = (  0.0000000  0.0000000  0.3333333  )
         4        Fe     tau(   4) = (  0.1666667  0.1666667  0.5000000  )
         5        Fe     tau(   5) = (  0.0000000  0.0000000  0.6666667  )
         6        Fe     tau(   6) = (  0.1666667  0.1666667  0.8333333  )
         7        Fe     tau(   7) = (  0.0000000  0.3333333  0.0000000  )
         8        Fe     tau(   8) = (  0.1666667  0.5000000  0.1666667  )
         9        Fe     tau(   9) = (  0.0000000  0.3333333  0.3333333  )
        10        Fe     tau(  10) = (  0.1666667  0.5000000  0.5000000  )
        11        Fe     tau(  11) = (  0.0000000  0.3333333  0.6666667  )
        12        Fe     tau(  12) = (  0.1666667  0.5000000  0.8333333  )
        13        Fe     tau(  13) = (  0.0000000  0.6666667  0.0000000  )
        14        Fe     tau(  14) = (  0.1666667  0.8333333  0.1666667  )
        15        Fe     tau(  15) = (  0.0000000  0.6666667  0.3333333  )
        16        Fe     tau(  16) = (  0.1666667  0.8333333  0.5000000  )
        17        Fe     tau(  17) = (  0.0000000  0.6666667  0.6666667  )
        18        Fe     tau(  18) = (  0.1666667  0.8333333  0.8333333  )
        19        Fe     tau(  19) = (  0.3333333  0.0000000  0.0000000  )
        20        Fe     tau(  20) = (  0.5000000  0.1666667  0.1666667  )
        21        Fe     tau(  21) = (  0.3333333  0.0000000  0.3333333  )
        22        Fe     tau(  22) = (  0.5000000  0.1666667  0.5000000  )
        23        Fe     tau(  23) = (  0.3333333  0.0000000  0.6666667  )
        24        Fe     tau(  24) = (  0.5000000  0.1666667  0.8333333  )
        25        Fe     tau(  25) = (  0.3333333  0.3333333  0.0000000  )
        26        Fe     tau(  26) = (  0.5000000  0.5000000  0.1666667  )
        27        Fe     tau(  27) = (  0.3333333  0.3333333  0.3333333  )
        28        Fe     tau(  28) = (  0.5000000  0.5000000  0.5000000  )
        29        Fe     tau(  29) = (  0.3333333  0.3333333  0.6666667  )
        30        Fe     tau(  30) = (  0.5000000  0.5000000  0.8333333  )
        31        Fe     tau(  31) = (  0.3333333  0.6666667  0.0000000  )
        32        Fe     tau(  32) = (  0.5000000  0.8333333  0.1666667  )
        33        Fe     tau(  33) = (  0.3333333  0.6666667  0.3333333  )
        34        Fe     tau(  34) = (  0.5000000  0.8333333  0.5000000  )
        35        Fe     tau(  35) = (  0.3333333  0.6666667  0.6666667  )
        36        Fe     tau(  36) = (  0.5000000  0.8333333  0.8333333  )
        37        Fe     tau(  37) = (  0.6666667  0.0000000  0.0000000  )
        38        Fe     tau(  38) = (  0.8333333  0.1666667  0.1666667  )
        39        Fe     tau(  39) = (  0.6666667  0.0000000  0.3333333  )
        40        Fe     tau(  40) = (  0.8333333  0.1666667  0.5000000  )
        41        Fe     tau(  41) = (  0.6666667  0.0000000  0.6666667  )
        42        Fe     tau(  42) = (  0.8333333  0.1666667  0.8333333  )
        43        Fe     tau(  43) = (  0.6666667  0.3333333  0.0000000  )
        44        Fe     tau(  44) = (  0.8333333  0.5000000  0.1666667  )
        45        Fe     tau(  45) = (  0.6666667  0.3333333  0.3333333  )
        46        Fe     tau(  46) = (  0.8333333  0.5000000  0.5000000  )
        47        Fe     tau(  47) = (  0.6666667  0.3333333  0.6666667  )
        48        Fe     tau(  48) = (  0.8333333  0.5000000  0.8333333  )
        49        Fe     tau(  49) = (  0.6666667  0.6666667  0.0000000  )
        50        Fe     tau(  50) = (  0.8333333  0.8333333  0.1666667  )
        51        Fe     tau(  51) = (  0.6666667  0.6666667  0.3333333  )
        52        Fe     tau(  52) = (  0.8333333  0.8333333  0.5000000  )
        53        Fe     tau(  53) = (  0.6666667  0.6666667  0.6666667  )
        54        Fe     tau(  54) = (  0.8333333  0.8333333  0.8333333  )

     number of k points=    56  Marzari-Vanderbilt smearing, width (Ry)=  0.0100
                       cart. coord. in units 2pi/alat
        k(    1) = (   0.0000000   0.0000000   0.0000000), wk =   0.0020000
        k(    2) = (   0.0000000   0.0000000   0.1000000), wk =   0.0120000
        k(    3) = (   0.0000000   0.0000000   0.2000000), wk =   0.0120000
        k(    4) = (   0.0000000   0.0000000   0.3000000), wk =   0.0120000
        k(    5) = (   0.0000000   0.0000000   0.4000000), wk =   0.0120000
        k(    6) = (   0.0000000   0.0000000  -0.5000000), wk =   0.0060000
        k(    7) = (   0.0000000   0.1000000   0.1000000), wk =   0.0240000
        k(    8) = (   0.0000000   0.1000000   0.2000000), wk =   0.0480000
        k(    9) = (   0.0000000   0.1000000   0.3000000), wk =   0.0480000
        k(   10) = (   0.0000000   0.1000000   0.4000000), wk =   0.0480000
        k(   11) = (   0.0000000   0.1000000  -0.5000000), wk =   0.0240000
        k(   12) = (   0.0000000   0.2000000   0.2000000), wk =   0.0240000
        k(   13) = (   0.0000000   0.2000000   0.3000000), wk =   0.0480000
        k(   14) = (   0.0000000   0.2000000   0.4000000), wk =   0.0480000
        k(   15) = (   0.0000000   0.2000000  -0.5000000), wk =   0.0240000
        k(   16) = (   0.0000000   0.3000000   0.3000000), wk =   0.0240000
        k(   17) = (   0.0000000   0.3000000   0.4000000), wk =   0.0480000
        k(   18) = (   0.0000000   0.3000000  -0.5000000), wk =   0.0240000
        k(   19) = (   0.0000000   0.4000000   0.4000000), wk =   0.0240000
        k(   20) = (   0.0000000   0.4000000  -0.5000000), wk =   0.0240000
        k(   21) = (   0.0000000  -0.5000000  -0.5000000), wk =   0.0060000
        k(   22) = (   0.1000000   0.1000000   0.1000000), wk =   0.0160000
        k(   23) = (   0.1000000   0.1000000   0.2000000), wk =   0.0480000
        k(   24) = (   0.1000000   0.1000000   0.3000000), wk =   0.0480000
        k(   25) = (   0.1000000   0.1000000   0.4000000), wk =   0.0480000
        k(   26) = (   0.1000000   0.1000000  -0.5000000), wk =   0.0240000
        k(   27) = (   0.1000000   0.2000000   0.2000000), wk =   0.0480000
        k(   28) = (   0.1000000   0.2000000   0.3000000), wk =   0.0960000
        k(   29) = (   0.1000000   0.2000000   0.4000000), wk =   0.0960000
        k(   30) = (   0.1000000   0.2000000  -0.5000000), wk =   0.0480000
        k(   31) = (   0.1000000   0.3000000   0.3000000), wk =   0.0480000
        k(   32) = (   0.1000000   0.3000000   0.4000000), wk =   0.0960000
        k(   33) = (   0.1000000   0.3000000  -0.5000000), wk =   0.0480000
        k(   34) = (   0.1000000   0.4000000   0.4000000), wk =   0.0480000
        k(   35) = (   0.1000000   0.4000000  -0.5000000), wk =   0.0480000
        k(   36) = (   0.1000000  -0.5000000  -0.5000000), wk =   0.0120000
        k(   37) = (   0.2000000   0.2000000   0.2000000), wk =   0.0160000
        k(   38) = (   0.2000000   0.2000000   0.3000000), wk =   0.0480000
        k(   39) = (   0.2000000   0.2000000   0.4000000), wk =   0.0480000
        k(   40) = (   0.2000000   0.2000000  -0.5000000), wk =   0.0240000
        k(   41) = (   0.2000000   0.3000000   0.3000000), wk =   0.0480000
        k(   42) = (   0.2000000   0.3000000   0.4000000), wk =   0.0960000
        k(   43) = (   0.2000000   0.3000000  -0.5000000), wk =   0.0480000
        k(   44) = (   0.2000000   0.4000000   0.4000000), wk =   0.0480000
        k(   45) = (   0.2000000   0.4000000  -0.5000000), wk =   0.0480000
        k(   46) = (   0.2000000  -0.5000000  -0.5000000), wk =   0.0120000
        k(   47) = (   0.3000000   0.3000000   0.3000000), wk =   0.0160000
        k(   48) = (   0.3000000   0.3000000   0.4000000), wk =   0.0480000
        k(   49) = (   0.3000000   0.3000000  -0.5000000), wk =   0.0240000
        k(   50) = (   0.3000000   0.4000000   0.4000000), wk =   0.0480000
        k(   51) = (   0.3000000   0.4000000  -0.5000000), wk =   0.0480000
        k(   52) = (   0.3000000  -0.5000000  -0.5000000), wk =   0.0120000
        k(   53) = (   0.4000000   0.4000000   0.4000000), wk =   0.0160000
        k(   54) = (   0.4000000   0.4000000  -0.5000000), wk =   0.0240000
        k(   55) = (   0.4000000  -0.5000000  -0.5000000), wk =   0.0120000
        k(   56) = (  -0.5000000  -0.5000000  -0.5000000), wk =   0.0020000

                       cryst. coord.
        k(    1) = (   0.0000000   0.0000000   0.0000000), wk =   0.0020000
        k(    2) = (   0.0000000   0.0000000   0.1000000), wk =   0.0120000
        k(    3) = (   0.0000000   0.0000000   0.2000000), wk =   0.0120000
        k(    4) = (   0.0000000   0.0000000   0.3000000), wk =   0.0120000
        k(    5) = (   0.0000000   0.0000000   0.4000000), wk =   0.0120000
        k(    6) = (   0.0000000   0.0000000  -0.5000000), wk =   0.0060000
        k(    7) = (   0.0000000   0.1000000   0.1000000), wk =   0.0240000
        k(    8) = (   0.0000000   0.1000000   0.2000000), wk =   0.0480000
        k(    9) = (   0.0000000   0.1000000   0.3000000), wk =   0.0480000
        k(   10) = (   0.0000000   0.1000000   0.4000000), wk =   0.0480000
        k(   11) = (   0.0000000   0.1000000  -0.5000000), wk =   0.0240000
        k(   12) = (   0.0000000   0.2000000   0.2000000), wk =   0.0240000
        k(   13) = (   0.0000000   0.2000000   0.3000000), wk =   0.0480000
        k(   14) = (   0.0000000   0.2000000   0.4000000), wk =   0.0480000
        k(   15) = (   0.0000000   0.2000000  -0.5000000), wk =   0.0240000
        k(   16) = (   0.0000000   0.3000000   0.3000000), wk =   0.0240000
        k(   17) = (   0.0000000   0.3000000   0.4000000), wk =   0.0480000
        k(   18) = (   0.0000000   0.3000000  -0.5000000), wk =   0.0240000
        k(   19) = (   0.0000000   0.4000000   0.4000000), wk =   0.0240000
        k(   20) = (   0.0000000   0.4000000  -0.5000000), wk =   0.0240000
        k(   21) = (   0.0000000  -0.5000000  -0.5000000), wk =   0.0060000
        k(   22) = (   0.1000000   0.1000000   0.1000000), wk =   0.0160000
        k(   23) = (   0.1000000   0.1000000   0.2000000), wk =   0.0480000
        k(   24) = (   0.1000000   0.1000000   0.3000000), wk =   0.0480000
        k(   25) = (   0.1000000   0.1000000   0.4000000), wk =   0.0480000
        k(   26) = (   0.1000000   0.1000000  -0.5000000), wk =   0.0240000
        k(   27) = (   0.1000000   0.2000000   0.2000000), wk =   0.0480000
        k(   28) = (   0.1000000   0.2000000   0.3000000), wk =   0.0960000
        k(   29) = (   0.1000000   0.2000000   0.4000000), wk =   0.0960000
        k(   30) = (   0.1000000   0.2000000  -0.5000000), wk =   0.0480000
        k(   31) = (   0.1000000   0.3000000   0.3000000), wk =   0.0480000
        k(   32) = (   0.1000000   0.3000000   0.4000000), wk =   0.0960000
        k(   33) = (   0.1000000   0.3000000  -0.5000000), wk =   0.0480000
        k(   34) = (   0.1000000   0.4000000   0.4000000), wk =   0.0480000
        k(   35) = (   0.1000000   0.4000000  -0.5000000), wk =   0.0480000
        k(   36) = (   0.1000000  -0.5000000  -0.5000000), wk =   0.0120000
        k(   37) = (   0.2000000   0.2000000   0.2000000), wk =   0.0160000
        k(   38) = (   0.2000000   0.2000000   0.3000000), wk =   0.0480000
        k(   39) = (   0.2000000   0.2000000   0.4000000), wk =   0.0480000
        k(   40) = (   0.2000000   0.2000000  -0.5000000), wk =   0.0240000
        k(   41) = (   0.2000000   0.3000000   0.3000000), wk =   0.0480000
        k(   42) = (   0.2000000   0.3000000   0.4000000), wk =   0.0960000
        k(   43) = (   0.2000000   0.3000000  -0.5000000), wk =   0.0480000
        k(   44) = (   0.2000000   0.4000000   0.4000000), wk =   0.0480000
        k(   45) = (   0.2000000   0.4000000  -0.5000000), wk =   0.0480000
        k(   46) = (   0.2000000  -0.5000000  -0.5000000), wk =   0.0120000
        k(   47) = (   0.3000000   0.3000000   0.3000000), wk =   0.0160000
        k(   48) = (   0.3000000   0.3000000   0.4000000), wk =   0.0480000
        k(   49) = (   0.3000000   0.3000000  -0.5000000), wk =   0.0240000
        k(   50) = (   0.3000000   0.4000000   0.4000000), wk =   0.0480000
        k(   51) = (   0.3000000   0.4000000  -0.5000000), wk =   0.0480000
        k(   52) = (   0.3000000  -0.5000000  -0.5000000), wk =   0.0120000
        k(   53) = (   0.4000000   0.4000000   0.4000000), wk =   0.0160000
        k(   54) = (   0.4000000   0.4000000  -0.5000000), wk =   0.0240000
        k(   55) = (   0.4000000  -0.5000000  -0.5000000), wk =   0.0120000
        k(   56) = (  -0.5000000  -0.5000000  -0.5000000), wk =   0.0020000

     Dense  grid:  2576031 G-vectors     FFT dimensions: ( 180, 180, 180)

     Smooth grid:   495639 G-vectors     FFT dimensions: ( 100, 100, 100)

     Dynamical RAM for                 wfc:      30.61 MB

     Dynamical RAM for     wfc (w. buffer):     244.90 MB

     Dynamical RAM for           str. fact:       2.46 MB

     Dynamical RAM for           local pot:       0.00 MB

     Dynamical RAM for          nlocal pot:      57.44 MB

     Dynamical RAM for                qrad:       2.64 MB

     Dynamical RAM for          rho,v,vnew:      16.27 MB

     Dynamical RAM for               rhoin:       5.42 MB

     Dynamical RAM for            rho*nmix:      39.31 MB

     Dynamical RAM for           G-vectors:       9.45 MB

     Dynamical RAM for          h,s,v(r/c):       3.07 MB

     Dynamical RAM for          <psi|beta>:       7.68 MB

     Dynamical RAM for                 psi:      61.22 MB

     Dynamical RAM for                hpsi:      61.22 MB

     Dynamical RAM for                spsi:      61.22 MB

     Dynamical RAM for      wfcinit/wfcrot:      94.26 MB

     Dynamical RAM for           addusdens:      75.85 MB

     Dynamical RAM for          addusforce:     107.69 MB

     Dynamical RAM for         addusstress:      62.80 MB

     Estimated static dynamical RAM per process >     358.32 MB

     Estimated max dynamical RAM per process >     592.05 MB

     Estimated total dynamical RAM >      69.71 GB

     Check: negative core charge=   -0.000010

     Initial potential from superposition of free atoms

     starting charge     863.9763, renormalised to     864.0000
     Starting wfcs are  702 randomized atomic wfcs

     total cpu time spent up to now is       50.5 secs

     per-process dynamical memory:   574.9 Mb

     Self-consistent Calculation

     iteration #  1     ecut=    90.00 Ry     beta= 0.20
     Davidson diagonalization with overlap

---- Real-time Memory Report at c_bands before calling an iterative solver
           756 MiB given to the printing process from OS
           561 MiB allocation reported by mallinfo(arena+hblkhd)
        395433 MiB available memory on the node where the printing process lives
------------------
     ethr =  1.00E-02,  avg # of iterations =  2.0

     Threshold (ethr) on eigenvalues was too large:
     Diagonalizing with lowered threshold

     Davidson diagonalization with overlap

---- Real-time Memory Report at c_bands before calling an iterative solver
           892 MiB given to the printing process from OS
           566 MiB allocation reported by mallinfo(arena+hblkhd)
        394094 MiB available memory on the node where the printing process lives
------------------
     ethr =  1.51E-04,  avg # of iterations =  5.0

     total cpu time spent up to now is      307.7 secs

     total energy              =  -13733.63865043 Ry
     estimated scf accuracy    <       1.90676734 Ry

     iteration #  2     ecut=    90.00 Ry     beta= 0.20
     Davidson diagonalization with overlap

---- Real-time Memory Report at c_bands before calling an iterative solver
           907 MiB given to the printing process from OS
           569 MiB allocation reported by mallinfo(arena+hblkhd)
        394023 MiB available memory on the node where the printing process lives
------------------
     ethr =  2.21E-04,  avg # of iterations =  2.1

     total cpu time spent up to now is      421.8 secs

     total energy              =  -13733.77109014 Ry
     estimated scf accuracy    <       0.19590055 Ry

     iteration #  3     ecut=    90.00 Ry     beta= 0.20
     Davidson diagonalization with overlap

---- Real-time Memory Report at c_bands before calling an iterative solver
           907 MiB given to the printing process from OS
           570 MiB allocation reported by mallinfo(arena+hblkhd)
        394005 MiB available memory on the node where the printing process lives
------------------
     ethr =  2.27E-05,  avg # of iterations =  5.0

     total cpu time spent up to now is      565.5 secs

     total energy              =  -13733.81867268 Ry
     estimated scf accuracy    <       0.04366432 Ry

     iteration #  4     ecut=    90.00 Ry     beta= 0.20
     Davidson diagonalization with overlap

---- Real-time Memory Report at c_bands before calling an iterative solver
           909 MiB given to the printing process from OS
           572 MiB allocation reported by mallinfo(arena+hblkhd)
        393985 MiB available memory on the node where the printing process lives
------------------
     ethr =  5.05E-06,  avg # of iterations =  5.9

     total cpu time spent up to now is      716.5 secs

     total energy              =  -13733.84148747 Ry
     estimated scf accuracy    <       2.75990040 Ry

     iteration #  5     ecut=    90.00 Ry     beta= 0.20
     Davidson diagonalization with overlap

---- Real-time Memory Report at c_bands before calling an iterative solver
           911 MiB given to the printing process from OS
           573 MiB allocation reported by mallinfo(arena+hblkhd)
        393944 MiB available memory on the node where the printing process lives
------------------
     ethr =  5.05E-06,  avg # of iterations =  2.9

     total cpu time spent up to now is      837.5 secs

     total energy              =  -13733.86641738 Ry
     estimated scf accuracy    <       0.59061964 Ry

     iteration #  6     ecut=    90.00 Ry     beta= 0.20
     Davidson diagonalization with overlap

---- Real-time Memory Report at c_bands before calling an iterative solver
           911 MiB given to the printing process from OS
           574 MiB allocation reported by mallinfo(arena+hblkhd)
        393899 MiB available memory on the node where the printing process lives
------------------
     ethr =  5.05E-06,  avg # of iterations =  1.1

     total cpu time spent up to now is      933.4 secs

     total energy              =  -13733.83900137 Ry
     estimated scf accuracy    <       0.25810871 Ry

     iteration #  7     ecut=    90.00 Ry     beta= 0.20
     Davidson diagonalization with overlap

---- Real-time Memory Report at c_bands before calling an iterative solver
           911 MiB given to the printing process from OS
           575 MiB allocation reported by mallinfo(arena+hblkhd)
        393861 MiB available memory on the node where the printing process lives
------------------
     ethr =  5.05E-06,  avg # of iterations =  2.4

     total cpu time spent up to now is     1052.1 secs

     total energy              =  -13733.81414175 Ry
     estimated scf accuracy    <       0.23749282 Ry

     iteration #  8     ecut=    90.00 Ry     beta= 0.20
     Davidson diagonalization with overlap

---- Real-time Memory Report at c_bands before calling an iterative solver
           911 MiB given to the printing process from OS
           577 MiB allocation reported by mallinfo(arena+hblkhd)
        393828 MiB available memory on the node where the printing process lives
------------------
     ethr =  5.05E-06,  avg # of iterations =  4.4

     total cpu time spent up to now is     1182.9 secs

     total energy              =  -13733.83276488 Ry
     estimated scf accuracy    <       0.01966995 Ry

     iteration #  9     ecut=    90.00 Ry     beta= 0.20
     Davidson diagonalization with overlap

---- Real-time Memory Report at c_bands before calling an iterative solver
           911 MiB given to the printing process from OS
           577 MiB allocation reported by mallinfo(arena+hblkhd)
        393807 MiB available memory on the node where the printing process lives
------------------
     ethr =  2.28E-06,  avg # of iterations =  1.1

     total cpu time spent up to now is     1279.9 secs

     total energy              =  -13733.83392970 Ry
     estimated scf accuracy    <       0.00748284 Ry

     iteration # 10     ecut=    90.00 Ry     beta= 0.20
     Davidson diagonalization with overlap

---- Real-time Memory Report at c_bands before calling an iterative solver
           911 MiB given to the printing process from OS
           578 MiB allocation reported by mallinfo(arena+hblkhd)
        393777 MiB available memory on the node where the printing process lives
------------------
     ethr =  8.66E-07,  avg # of iterations =  2.0

     total cpu time spent up to now is     1384.4 secs

     total energy              =  -13733.83222715 Ry
     estimated scf accuracy    <       0.00526111 Ry

     iteration # 11     ecut=    90.00 Ry     beta= 0.20
     Davidson diagonalization with overlap

---- Real-time Memory Report at c_bands before calling an iterative solver
           911 MiB given to the printing process from OS
           578 MiB allocation reported by mallinfo(arena+hblkhd)
        393775 MiB available memory on the node where the printing process lives
------------------
     ethr =  6.09E-07,  avg # of iterations =  2.9

     total cpu time spent up to now is     1506.2 secs

     total energy              =  -13733.83311431 Ry
     estimated scf accuracy    <       0.00353715 Ry

     iteration # 12     ecut=    90.00 Ry     beta= 0.20
     Davidson diagonalization with overlap

---- Real-time Memory Report at c_bands before calling an iterative solver
           911 MiB given to the printing process from OS
           578 MiB allocation reported by mallinfo(arena+hblkhd)
        393766 MiB available memory on the node where the printing process lives
------------------
     ethr =  4.09E-07,  avg # of iterations =  1.0

     total cpu time spent up to now is     1599.3 secs

     total energy              =  -13733.83319419 Ry
     estimated scf accuracy    <       0.00014529 Ry

     iteration # 13     ecut=    90.00 Ry     beta= 0.20
     Davidson diagonalization with overlap

---- Real-time Memory Report at c_bands before calling an iterative solver
           911 MiB given to the printing process from OS
           578 MiB allocation reported by mallinfo(arena+hblkhd)
        393760 MiB available memory on the node where the printing process lives
------------------
     ethr =  1.68E-08,  avg # of iterations =  4.0

     total cpu time spent up to now is     1722.2 secs

     total energy              =  -13733.83320175 Ry
     estimated scf accuracy    <       0.00042114 Ry

     iteration # 14     ecut=    90.00 Ry     beta= 0.20
     Davidson diagonalization with overlap

---- Real-time Memory Report at c_bands before calling an iterative solver
           911 MiB given to the printing process from OS
           578 MiB allocation reported by mallinfo(arena+hblkhd)
        393757 MiB available memory on the node where the printing process lives
------------------
     ethr =  1.68E-08,  avg # of iterations =  1.7

     total cpu time spent up to now is     1824.5 secs

     total energy              =  -13733.83320568 Ry
     estimated scf accuracy    <       0.00018334 Ry

     iteration # 15     ecut=    90.00 Ry     beta= 0.20
     Davidson diagonalization with overlap

---- Real-time Memory Report at c_bands before calling an iterative solver
           911 MiB given to the printing process from OS
           578 MiB allocation reported by mallinfo(arena+hblkhd)
        393758 MiB available memory on the node where the printing process lives
------------------
     ethr =  1.68E-08,  avg # of iterations =  1.0

     total cpu time spent up to now is     1918.4 secs

     total energy              =  -13733.83318353 Ry
     estimated scf accuracy    <       0.00154896 Ry

     iteration # 16     ecut=    90.00 Ry     beta= 0.20
     Davidson diagonalization with overlap

---- Real-time Memory Report at c_bands before calling an iterative solver
           911 MiB given to the printing process from OS
           578 MiB allocation reported by mallinfo(arena+hblkhd)
        393751 MiB available memory on the node where the printing process lives
------------------
     ethr =  1.68E-08,  avg # of iterations =  1.4

     total cpu time spent up to now is     2018.5 secs

     total energy              =  -13733.83313938 Ry
     estimated scf accuracy    <       0.00408357 Ry

     iteration # 17     ecut=    90.00 Ry     beta= 0.20
     Davidson diagonalization with overlap

---- Real-time Memory Report at c_bands before calling an iterative solver
           911 MiB given to the printing process from OS
           578 MiB allocation reported by mallinfo(arena+hblkhd)
        393743 MiB available memory on the node where the printing process lives
------------------
     ethr =  1.68E-08,  avg # of iterations =  1.1

     total cpu time spent up to now is     2114.8 secs

     total energy              =  -13733.83316083 Ry
     estimated scf accuracy    <       0.00187202 Ry

     iteration # 18     ecut=    90.00 Ry     beta= 0.20
     Davidson diagonalization with overlap

---- Real-time Memory Report at c_bands before calling an iterative solver
           911 MiB given to the printing process from OS
           578 MiB allocation reported by mallinfo(arena+hblkhd)
        393739 MiB available memory on the node where the printing process lives
------------------
     ethr =  1.68E-08,  avg # of iterations =  1.0

     total cpu time spent up to now is     2206.4 secs

     total energy              =  -13733.83318822 Ry
     estimated scf accuracy    <       0.00006245 Ry

     iteration # 19     ecut=    90.00 Ry     beta= 0.20
     Davidson diagonalization with overlap

---- Real-time Memory Report at c_bands before calling an iterative solver
           911 MiB given to the printing process from OS
           578 MiB allocation reported by mallinfo(arena+hblkhd)
        393747 MiB available memory on the node where the printing process lives
------------------
     ethr =  7.23E-09,  avg # of iterations =  1.0

     total cpu time spent up to now is     2298.8 secs

     total energy              =  -13733.83318079 Ry
     estimated scf accuracy    <       0.00007478 Ry

     iteration # 20     ecut=    90.00 Ry     beta= 0.20
     Davidson diagonalization with overlap

---- Real-time Memory Report at c_bands before calling an iterative solver
           911 MiB given to the printing process from OS
           578 MiB allocation reported by mallinfo(arena+hblkhd)
        393744 MiB available memory on the node where the printing process lives
------------------
     ethr =  7.23E-09,  avg # of iterations =  2.0

     total cpu time spent up to now is     2405.2 secs

     total energy              =  -13733.83315767 Ry
     estimated scf accuracy    <       0.00223901 Ry

     iteration # 21     ecut=    90.00 Ry     beta= 0.20
     Davidson diagonalization with overlap

---- Real-time Memory Report at c_bands before calling an iterative solver
           911 MiB given to the printing process from OS
           578 MiB allocation reported by mallinfo(arena+hblkhd)
        393742 MiB available memory on the node where the printing process lives
------------------
     ethr =  7.23E-09,  avg # of iterations =  1.0

     total cpu time spent up to now is     2498.7 secs

     total energy              =  -13733.83318790 Ry
     estimated scf accuracy    <       0.00004975 Ry

     iteration # 22     ecut=    90.00 Ry     beta= 0.20
     Davidson diagonalization with overlap

---- Real-time Memory Report at c_bands before calling an iterative solver
           911 MiB given to the printing process from OS
           578 MiB allocation reported by mallinfo(arena+hblkhd)
        393742 MiB available memory on the node where the printing process lives
------------------
     ethr =  5.76E-09,  avg # of iterations =  1.0

     total cpu time spent up to now is     2589.3 secs

     total energy              =  -13733.83318907 Ry
     estimated scf accuracy    <       0.00000021 Ry

     iteration # 23     ecut=    90.00 Ry     beta= 0.20
     Davidson diagonalization with overlap

---- Real-time Memory Report at c_bands before calling an iterative solver
           911 MiB given to the printing process from OS
           578 MiB allocation reported by mallinfo(arena+hblkhd)
        393740 MiB available memory on the node where the printing process lives
------------------
     ethr =  2.41E-11,  avg # of iterations =  4.7

     total cpu time spent up to now is     2721.0 secs

     total energy              =  -13733.83318911 Ry
     estimated scf accuracy    <       0.00000025 Ry

     iteration # 24     ecut=    90.00 Ry     beta= 0.20
     Davidson diagonalization with overlap

---- Real-time Memory Report at c_bands before calling an iterative solver
           911 MiB given to the printing process from OS
           578 MiB allocation reported by mallinfo(arena+hblkhd)
        393722 MiB available memory on the node where the printing process lives
------------------
     ethr =  2.41E-11,  avg # of iterations =  1.0

     total cpu time spent up to now is     2813.0 secs

     total energy              =  -13733.83318913 Ry
     estimated scf accuracy    <       0.00000043 Ry

     iteration # 25     ecut=    90.00 Ry     beta= 0.20
     Davidson diagonalization with overlap

---- Real-time Memory Report at c_bands before calling an iterative solver
           911 MiB given to the printing process from OS
           578 MiB allocation reported by mallinfo(arena+hblkhd)
        393725 MiB available memory on the node where the printing process lives
------------------
     ethr =  2.41E-11,  avg # of iterations =  1.3

     total cpu time spent up to now is     2912.5 secs

     total energy              =  -13733.83318907 Ry
     estimated scf accuracy    <       0.00000933 Ry

     iteration # 26     ecut=    90.00 Ry     beta= 0.20
     Davidson diagonalization with overlap

---- Real-time Memory Report at c_bands before calling an iterative solver
           911 MiB given to the printing process from OS
           578 MiB allocation reported by mallinfo(arena+hblkhd)
        393723 MiB available memory on the node where the printing process lives
------------------
     ethr =  2.41E-11,  avg # of iterations =  1.5

     total cpu time spent up to now is     3014.2 secs

     total energy              =  -13733.83318912 Ry
     estimated scf accuracy    <       0.00000361 Ry

     iteration # 27     ecut=    90.00 Ry     beta= 0.20
     Davidson diagonalization with overlap

---- Real-time Memory Report at c_bands before calling an iterative solver
           916 MiB given to the printing process from OS
           578 MiB allocation reported by mallinfo(arena+hblkhd)
        393714 MiB available memory on the node where the printing process lives
------------------
     ethr =  2.41E-11,  avg # of iterations =  1.0

     total cpu time spent up to now is     3109.0 secs

     total energy              =  -13733.83318914 Ry
     estimated scf accuracy    <       0.00000151 Ry

     iteration # 28     ecut=    90.00 Ry     beta= 0.20
     Davidson diagonalization with overlap

---- Real-time Memory Report at c_bands before calling an iterative solver
           916 MiB given to the printing process from OS
           578 MiB allocation reported by mallinfo(arena+hblkhd)
        393718 MiB available memory on the node where the printing process lives
------------------
     ethr =  2.41E-11,  avg # of iterations =  1.0

     total cpu time spent up to now is     3201.1 secs

     total energy              =  -13733.83318917 Ry
     estimated scf accuracy    <       0.00000013 Ry

     iteration # 29     ecut=    90.00 Ry     beta= 0.20
     Davidson diagonalization with overlap

---- Real-time Memory Report at c_bands before calling an iterative solver
           916 MiB given to the printing process from OS
           578 MiB allocation reported by mallinfo(arena+hblkhd)
        393710 MiB available memory on the node where the printing process lives
------------------
     ethr =  1.47E-11,  avg # of iterations =  1.0

     total cpu time spent up to now is     3295.7 secs

     total energy              =  -13733.83318917 Ry
     estimated scf accuracy    <       0.00000048 Ry

     iteration # 30     ecut=    90.00 Ry     beta= 0.20
     Davidson diagonalization with overlap

---- Real-time Memory Report at c_bands before calling an iterative solver
           916 MiB given to the printing process from OS
           578 MiB allocation reported by mallinfo(arena+hblkhd)
        393717 MiB available memory on the node where the printing process lives
------------------
     ethr =  1.47E-11,  avg # of iterations =  1.0

     total cpu time spent up to now is     3389.4 secs

     total energy              =  -13733.83318918 Ry
     estimated scf accuracy    <       0.00000009 Ry

     iteration # 31     ecut=    90.00 Ry     beta= 0.20
     Davidson diagonalization with overlap

---- Real-time Memory Report at c_bands before calling an iterative solver
           916 MiB given to the printing process from OS
           578 MiB allocation reported by mallinfo(arena+hblkhd)
        393712 MiB available memory on the node where the printing process lives
------------------
     ethr =  1.02E-11,  avg # of iterations =  1.0

     total cpu time spent up to now is     3481.5 secs

     total energy              =  -13733.83318918 Ry
     estimated scf accuracy    <       0.00000002 Ry

     iteration # 32     ecut=    90.00 Ry     beta= 0.20
     Davidson diagonalization with overlap

---- Real-time Memory Report at c_bands before calling an iterative solver
           916 MiB given to the printing process from OS
           578 MiB allocation reported by mallinfo(arena+hblkhd)
        393707 MiB available memory on the node where the printing process lives
------------------
     ethr =  2.80E-12,  avg # of iterations =  1.0

     total cpu time spent up to now is     3573.5 secs

     total energy              =  -13733.83318918 Ry
     estimated scf accuracy    <       0.00000007 Ry

     iteration # 33     ecut=    90.00 Ry     beta= 0.20
     Davidson diagonalization with overlap

---- Real-time Memory Report at c_bands before calling an iterative solver
           916 MiB given to the printing process from OS
           578 MiB allocation reported by mallinfo(arena+hblkhd)
        393705 MiB available memory on the node where the printing process lives
------------------
     ethr =  2.80E-12,  avg # of iterations =  1.0

     total cpu time spent up to now is     3665.5 secs

     End of self-consistent calculation

          k = 0.0000 0.0000 0.0000 ( 62093 PWs)   bands (ev):

   -69.5790 -69.5456 -69.5456 -69.5456 -69.5456 -69.5456 -69.5456 -69.5270
   -69.5270 -69.5270 -69.5270 -69.5270 -69.5270 -69.5270 -69.5270 -69.5270
   -69.5270 -69.5270 -69.5270 -69.5161 -69.5161 -69.5161 -69.5161 -69.5160
   -69.5160 -69.5160 -69.5160 -69.5010 -69.5010 -69.5010 -69.5010 -69.5010
   -69.5010 -69.5010 -69.5010 -69.4968 -69.4968 -69.4968 -69.4968 -69.4968
   -69.4968 -69.4968 -69.4968 -69.4968 -69.4968 -69.4968 -69.4968 -69.4852
   -69.4852 -69.4852 -69.4852 -69.4852 -69.4852 -69.4583 -35.7653 -35.7653
   -35.7653 -35.7653 -35.7653 -35.7653 -35.7653 -35.7653 -35.7653 -35.7653
   -35.7653 -35.7653 -35.7115 -35.7115 -35.7115 -35.7115 -35.7115 -35.7115
   -35.7115 -35.7115 -35.6986 -35.6986 -35.6986 -35.6986 -35.6986 -35.6986
   -35.6986 -35.6986 -35.6986 -35.6986 -35.6986 -35.6986 -35.6864 -35.6864
   -35.6864 -35.6746 -35.6746 -35.6746 -35.6746 -35.6746 -35.6746 -35.6746
   -35.6746 -35.6746 -35.6746 -35.6746 -35.6746 -35.6746 -35.6746 -35.6746
   -35.6746 -35.6627 -35.6627 -35.6627 -35.6627 -35.6627 -35.6627 -35.6156
   -35.6156 -35.6156 -35.6156 -35.6156 -35.6156 -35.6155 -35.6155 -35.6155
   -35.6155 -35.6155 -35.6155 -35.5779 -35.5779 -35.5779 -35.5779 -35.5779
   -35.5779 -35.5779 -35.5779 -35.5779 -35.5779 -35.5779 -35.5779 -35.5272
   -35.5272 -35.5272 -35.5272 -35.5272 -35.5272 -35.5099 -35.5099 -35.5099
   -35.5099 -35.5099 -35.5099 -35.5099 -35.5099 -35.5099 -35.5099 -35.5099
   -35.5099 -35.4989 -35.4989 -35.4989 -35.4989 -35.4989 -35.4989 -35.4989
   -35.4989 -35.4989 -35.4989 -35.4989 -35.4989 -35.4989 -35.4989 -35.4989
   -35.4989 -35.4831 -35.4831 -35.4831 -35.4831 -35.4831 -35.4831 -35.4831
   -35.4831 -35.4831 -35.4831 -35.4831 -35.4831 -35.4796 -35.4796 -35.4796
   -35.4796 -35.4796 -35.4796 -35.4796 -35.4796 -35.4796 -35.4796 -35.4796
   -35.4796 -35.4621 -35.4621 -35.4621 -35.4621 -35.4621 -35.4621 -35.4621
   -35.4621 -35.4146 -35.4146 -35.4146 -35.4143 -35.4143 -35.4143 -35.4143
   -35.4143 -35.4143 -35.4143 -35.4143 -35.4143 -35.4143 -35.4143 -35.4143
     9.1901  11.2642  11.2642  11.2642  11.2642  11.2642  11.2642  12.5957
    12.5957  12.5957  12.5957  12.5957  12.5957  12.5957  12.5957  12.5957
    12.5957  12.5957  12.5957  13.5479  13.5479  13.8155  13.8155  13.8155
    13.8155  13.8155  13.8155  13.8155  13.8155  13.8155  13.8155  13.8155
    13.8155  13.9680  13.9680  13.9680  13.9680  13.9680  13.9680  14.0927
    14.0927  14.0927  14.0927  14.0927  14.0927  14.0927  14.0927  14.4972
    14.4972  14.4972  14.4972  14.4972  14.4972  14.5127  14.5127  14.5127
    14.5127  14.5127  14.5127  14.5127  14.5127  14.8791  14.8791  14.8791
    14.8791  14.8791  14.8791  14.8791  14.8791  14.8791  14.8791  14.8791
    14.8791  14.8791  14.8791  14.8791  14.8791  15.0734  15.0734  15.0734
    15.0734  15.0734  15.0734  15.0734  15.0734  15.0734  15.0734  15.0734
    15.0734  15.0734  15.0734  15.0734  15.0734  15.1364  15.1364  15.1364
    15.1364  15.1364  15.1364  15.1364  15.1364  15.1364  15.1364  15.1364
    15.1364  15.4432  15.4432  15.4432  15.4432  15.4432  15.4432  15.4432
    15.4432  15.4432  15.4432  15.4432  15.4432  15.5554  15.5554  15.5554
    15.5554  15.5554  15.5554  15.5554  15.5554  15.5554  15.5554  15.5554
    15.5554  15.9815  15.9815  15.9815  16.0186  16.0186  16.0186  16.0186
    16.0186  16.0186  16.0186  16.0186  16.0186  16.0186  16.0186  16.0186
    16.0512  16.0512  16.0512  16.0512  16.0512  16.0512  16.0512  16.0512
    16.0512  16.0512  16.0512  16.0512  16.4770  16.4770  16.4770  16.4770
    16.4770  16.4770  16.5640  16.5640  16.5640  16.5640  16.5640  16.5640
    16.9815  16.9815  16.9815  16.9815  16.9815  16.9815  16.9815  16.9815
    16.9815  16.9815  16.9815  16.9815  17.0627  17.0627  17.0627  17.0627
    17.0627  17.0627  17.0627  17.0627  17.0627  17.0627  17.0627  17.0627
    17.3457  17.3457  17.3457  17.3457  17.3457  17.3457  17.3457  17.3457
    17.3457  17.3457  17.3457  17.3457  17.4783  17.4783  17.5929  17.5929
    17.5929  17.5929  17.5929  17.5929  17.5929  17.5929  17.5929  17.5929
    17.5929  17.5929  17.5929  17.5929  17.5929  17.5929  17.6080  17.6080
    17.6080  17.6080  17.6080  17.6080  17.6080  17.6080  17.6080  17.6080
    17.6080  17.6080  17.6488  17.6488  17.6488  17.6488  17.6488  17.6488
    17.6488  17.6488  17.6488  17.6488  17.6488  17.6488  17.6488  17.6488
    17.6488  17.6488  17.7696  17.7696  17.7696  17.7696  17.7696  17.7696
    17.8484  17.8484  17.8484  17.8484  17.8484  17.8484  17.8872  17.8872
    17.8872  17.8872  17.8872  17.8872  17.8872  17.8872  17.8872  17.8872
    17.8872  17.8872  18.3916  18.3916  18.3916  18.5923  18.5923  18.5923
    18.5923  18.5923  18.5923  18.5923  18.5923  18.5923  18.5923  18.5923
    18.5923  20.0245  20.0245  20.0245  20.0245  20.0245  20.0245  20.0245
    20.0246  20.6612  20.6612  20.6612  20.6612  20.6612

     occupation numbers 
     1.0000   1.0000   1.0000   1.0000   1.0000   1.0000   1.0000   1.0000
     1.0000   1.0000   1.0000   1.0000   1.0000   1.0000   1.0000   1.0000
     1.0000   1.0000   1.0000   1.0000   1.0000   1.0000   1.0000   1.0000
     1.0000   1.0000   1.0000   1.0000   1.0000   1.0000   1.0000   1.0000
     1.0000   1.0000   1.0000   1.0000   1.0000   1.0000   1.0000   1.0000
     1.0000   1.0000   1.0000   1.0000   1.0000   1.0000   1.0000   1.0000
     1.0000   1.0000   1.0000   1.0000   1.0000   1.0000   1.0000   1.0000
     1.0000   1.0000   1.0000   1.0000   1.0000   1.0000   1.0000   1.0000
     1.0000   1.0000   1.0000   1.0000   1.0000   1.0000   1.0000   1.0000
     1.0000   1.0000   1.0000   1.0000   1.0000   1.0000   1.0000   1.0000
     1.0000   1.0000   1.0000   1.0000   1.0000   1.0000   1.0000   1.0000
     1.0000   1.0000   1.0000   1.0000   1.0000   1.0000   1.0000   1.0000
     1.0000   1.0000   1.0000   1.0000   1.0000   1.0000   1.0000   1.0000
     1.0000   1.0000   1.0000   1.0000   1.0000   1.0000   1.0000   1.0000
     1.0000   1.0000   1.0000   1.0000   1.0000   1.0000   1.0000   1.0000
     1.0000   1.0000   1.0000   1.0000   1.0000   1.0000   1.0000   1.0000
     1.0000   1.0000   1.0000   1.0000   1.0000   1.0000   1.0000   1.0000
     1.0000   1.0000   1.0000   1.0000   1.0000   1.0000   1.0000   1.0000
     1.0000   1.0000   1.0000   1.0000   1.0000   1.0000   1.0000   1.0000
     1.0000   1.0000   1.0000   1.0000   1.0000   1.0000   1.0000   1.0000
     1.0000   1.0000   1.0000   1.0000   1.0000   1.0000   1.0000   1.0000
     1.0000   1.0000   1.0000   1.0000   1.0000   1.0000   1.0000   1.0000
     1.0000   1.0000   1.0000   1.0000   1.0000   1.0000   1.0000   1.0000
     1.0000   1.0000   1.0000   1.0000   1.0000   1.0000   1.0000   1.0000
     1.0000   1.0000   1.0000   1.0000   1.0000   1.0000   1.0000   1.0000
     1.0000   1.0000   1.0000   1.0000   1.0000   1.0000   1.0000   1.0000
     1.0000   1.0000   1.0000   1.0000   1.0000   1.0000   1.0000   1.0000
     1.0000   1.0000   1.0000   1.0000   1.0000   1.0000   1.0000   1.0000
     1.0000   1.0000   1.0000   1.0000   1.0000   1.0000   1.0000   1.0000
     1.0000   1.0000   1.0000   1.0000   1.0000   1.0000   1.0000   1.0000
     1.0000   1.0000   1.0000   1.0000   1.0000   1.0000   1.0000   1.0000
     1.0000   1.0000   1.0000   1.0000   1.0000   1.0000   1.0000   1.0000
     1.0000   1.0000   1.0000   1.0000   1.0000   1.0000   1.0000   1.0000
     1.0000   1.0000   1.0000   1.0000   1.0000   1.0000   1.0000   1.0000
     1.0000   1.0000   1.0000   1.0000   1.0000   1.0000   1.0000   1.0000
     1.0000   1.0000   1.0000   1.0000   1.0000   1.0000   1.0000   1.0000
     1.0000   1.0000   1.0000   1.0000   1.0000   1.0000   1.0000   1.0000
     1.0000   1.0000   1.0000   1.0000   1.0000   1.0000   1.0000   1.0000
     1.0000   1.0000   1.0000   1.0000   1.0000   1.0000   1.0000   1.0000
     1.0000   1.0000   1.0000   1.0000   1.0000   1.0000   1.0000   1.0000
     1.0000   1.0000   1.0000   1.0000   1.0000   1.0000   1.0000   1.0000
     1.0000   1.0000   1.0000   1.0000   1.0000   1.0000   1.0000   1.0000
     1.0000   1.0000   1.0000   1.0000   1.0000   1.0000   1.0000   1.0000
     1.0000   1.0000   1.0000   1.0000   1.0000   1.0000   1.0000   1.0000
     1.0000   1.0000   1.0000   1.0000   1.0000   1.0000   1.0000   1.0000
     1.0000   1.0000   1.0000   1.0000   1.0000   1.0000   1.0000   1.0000
     1.0000   1.0000   1.0000   1.0000   1.0000   1.0000   1.0000   1.0000
     1.0000   1.0000   1.0000   1.0000   1.0000   1.0000   1.0000   1.0000
     1.0000   1.0000   1.0000   1.0000   1.0000   1.0000   1.0000   1.0000
     1.0000   1.0000   1.0000   1.0000   1.0003   1.0003   1.0003   1.0003
     1.0003   1.0003   1.0003   1.0003   1.0003   1.0003   1.0003   1.0003
     1.0743   1.0743   1.0743   1.0743   1.0743   1.0743   1.0743   1.0743
     1.0743   1.0743   1.0743   1.0743   0.5912   0.5912   0.1102   0.1102
     0.1102   0.1102   0.1102   0.1102   0.1102   0.1102   0.1102   0.1102
     0.1102   0.1102   0.1102   0.1102   0.1102   0.1102   0.0804   0.0804
     0.0804   0.0803   0.0803   0.0803   0.0803   0.0803   0.0803   0.0803
     0.0803   0.0803   0.0304   0.0304   0.0304   0.0304   0.0304   0.0304
     0.0304   0.0304   0.0304   0.0304   0.0304   0.0304   0.0304   0.0304
     0.0304   0.0304   0.0006   0.0006   0.0006   0.0006   0.0006   0.0006
     0.0000   0.0000   0.0000   0.0000   0.0000   0.0000   0.0000   0.0000
     0.0000   0.0000   0.0000   0.0000   0.0000   0.0000   0.0000   0.0000
     0.0000   0.0000   0.0000   0.0000   0.0000   0.0000   0.0000   0.0000
     0.0000   0.0000   0.0000   0.0000   0.0000   0.0000   0.0000   0.0000
     0.0000   0.0000   0.0000   0.0000   0.0000   0.0000   0.0000   0.0000
     0.0000   0.0000   0.0000   0.0000   0.0000   0.0000

          k = 0.0000 0.0000 0.1000 ( 62033 PWs)   bands (ev):

   -69.5786 -69.5513 -69.5453 -69.5453 -69.5453 -69.5453 -69.5396 -69.5301
   -69.5301 -69.5301 -69.5301 -69.5269 -69.5269 -69.5269 -69.5269 -69.5238
   -69.5238 -69.5238 -69.5238 -69.5178 -69.5178 -69.5178 -69.5178 -69.5143
   -69.5143 -69.5143 -69.5143 -69.5020 -69.5020 -69.5020 -69.5020 -69.5001
   -69.5001 -69.5001 -69.5001 -69.4993 -69.4993 -69.4993 -69.4993 -69.4969
   -69.4969 -69.4969 -69.4969 -69.4946 -69.4946 -69.4946 -69.4946 -69.4904
   -69.4853 -69.4853 -69.4853 -69.4853 -69.4803 -69.4586 -35.7690 -35.7690
   -35.7690 -35.7690 -35.7643 -35.7643 -35.7643 -35.7643 -35.7595 -35.7595
   -35.7595 -35.7595 -35.7148 -35.7148 -35.7148 -35.7148 -35.7129 -35.7129
   -35.7129 -35.7129 -35.7097 -35.7097 -35.7097 -35.7097 -35.6987 -35.6987
   -35.6987 -35.6987 -35.6904 -35.6904 -35.6904 -35.6904 -35.6864 -35.6857
   -35.6857 -35.6842 -35.6842 -35.6842 -35.6842 -35.6810 -35.6810 -35.6810
   -35.6810 -35.6690 -35.6678 -35.6678 -35.6678 -35.6678 -35.6639 -35.6639
   -35.6639 -35.6639 -35.6578 -35.6578 -35.6578 -35.6578 -35.6550 -35.6279
   -35.6279 -35.6151 -35.6151 -35.6151 -35.6151 -35.6102 -35.6102 -35.6102
   -35.6102 -35.6025 -35.6025 -35.5844 -35.5844 -35.5844 -35.5844 -35.5799
   -35.5799 -35.5799 -35.5799 -35.5712 -35.5712 -35.5712 -35.5712 -35.5448
   -35.5332 -35.5332 -35.5332 -35.5332 -35.5159 -35.5159 -35.5159 -35.5159
   -35.5150 -35.5150 -35.5150 -35.5150 -35.5100 -35.5100 -35.5100 -35.5100
   -35.5096 -35.5044 -35.5044 -35.5044 -35.5044 -35.5023 -35.5023 -35.5023
   -35.5023 -35.4960 -35.4960 -35.4960 -35.4960 -35.4951 -35.4951 -35.4951
   -35.4951 -35.4919 -35.4919 -35.4839 -35.4839 -35.4839 -35.4839 -35.4821
   -35.4821 -35.4821 -35.4821 -35.4799 -35.4799 -35.4799 -35.4799 -35.4749
   -35.4749 -35.4749 -35.4749 -35.4711 -35.4711 -35.4711 -35.4711 -35.4680
   -35.4680 -35.4637 -35.4637 -35.4637 -35.4637 -35.4613 -35.4613 -35.4613
   -35.4613 -35.4160 -35.4153 -35.4153 -35.4152 -35.4152 -35.4152 -35.4152
   -35.4151 -35.4151 -35.4151 -35.4151 -35.4151 -35.4151 -35.4151 -35.4151
     9.2127  10.9014  11.2819  11.2819  11.2819  11.2819  11.6447  12.4108
    12.4108  12.4108  12.4108  12.6148  12.6148  12.6148  12.6148  12.7684
    12.7684  12.7684  12.7684  13.5570  13.5581  13.7251  13.7251  13.7251
    13.7251  13.8302  13.8302  13.8302  13.8302  13.8918  13.8918  13.8918
    13.8918  13.8986  13.8986  13.8986  13.8986  13.9224  13.9683  13.9776
    13.9776  13.9776  13.9776  14.2419  14.2419  14.2419  14.2419  14.3281
    14.4672  14.4672  14.4672  14.4672  14.4992  14.4992  14.4992  14.4992
    14.5360  14.5360  14.5360  14.5360  14.6779  14.8586  14.8586  14.8586
    14.8586  14.8816  14.8816  14.8816  14.8816  14.9061  14.9061  14.9061
    14.9061  14.9387  14.9387  14.9387  14.9387  14.9899  14.9899  14.9899
    14.9899  15.0181  15.0181  15.0181  15.0181  15.0966  15.0966  15.0966
    15.0966  15.1313  15.1313  15.1313  15.1313  15.1322  15.1322  15.1322
    15.1322  15.1721  15.1721  15.1721  15.1721  15.1927  15.1927  15.1927
    15.1927  15.2542  15.2542  15.2542  15.2542  15.4326  15.4326  15.4326
    15.4326  15.4391  15.4391  15.4391  15.4391  15.5358  15.5358  15.5358
    15.5358  15.6313  15.6313  15.6313  15.6313  15.6935  15.6935  15.6935
    15.6935  15.9034  15.9034  15.9034  15.9034  15.9810  15.9810  15.9855
    15.9855  15.9855  15.9855  15.9878  16.0089  16.0089  16.0089  16.0089
    16.0213  16.0213  16.0220  16.0220  16.0220  16.0220  16.0918  16.0918
    16.1485  16.1485  16.1485  16.1485  16.2897  16.4608  16.5140  16.5140
    16.5140  16.5140  16.6103  16.6103  16.6103  16.6103  16.6534  16.6742
    16.9013  16.9013  16.9376  16.9376  16.9376  16.9376  16.9990  16.9990
    16.9990  16.9990  17.0110  17.0110  17.0110  17.0110  17.0383  17.0383
    17.0383  17.0383  17.0541  17.0541  17.0541  17.0541  17.2331  17.2331
    17.3085  17.3085  17.3085  17.3085  17.3457  17.3457  17.3457  17.3457
    17.3623  17.3623  17.3623  17.3623  17.4674  17.4826  17.5547  17.5547
    17.5547  17.5547  17.5863  17.5863  17.5863  17.5864  17.5986  17.5986
    17.5986  17.5986  17.6001  17.6001  17.6001  17.6001  17.6082  17.6082
    17.6082  17.6082  17.6117  17.6117  17.6117  17.6117  17.6124  17.6124
    17.6124  17.6124  17.6280  17.6280  17.6280  17.6280  17.6407  17.6407
    17.6408  17.6408  17.6550  17.6845  17.6845  17.6845  17.6845  17.7007
    17.7008  17.7008  17.7008  17.7513  17.7513  17.7513  17.7513  17.7813
    17.8136  17.8136  17.8136  17.8136  17.8445  17.8445  17.8445  17.8445
    17.8779  17.9266  17.9328  17.9328  17.9328  17.9328  18.0152  18.0152
    18.0152  18.0152  18.3704  18.3704  18.3847  18.5598  18.5598  18.5598
    18.5598  18.5700  18.5700  18.5700  18.5700  18.5947  18.5947  18.5947
    18.5947  19.7423  19.7423  19.7423  19.7423  20.0686  20.3206  20.3206
    20.3206  20.3206  20.5395  20.5395  20.5395  20.5396

     occupation numbers 
     1.0000   1.0000   1.0000   1.0000   1.0000   1.0000   1.0000   1.0000
     1.0000   1.0000   1.0000   1.0000   1.0000   1.0000   1.0000   1.0000
     1.0000   1.0000   1.0000   1.0000   1.0000   1.0000   1.0000   1.0000
     1.0000   1.0000   1.0000   1.0000   1.0000   1.0000   1.0000   1.0000
     1.0000   1.0000   1.0000   1.0000   1.0000   1.0000   1.0000   1.0000
     1.0000   1.0000   1.0000   1.0000   1.0000   1.0000   1.0000   1.0000
     1.0000   1.0000   1.0000   1.0000   1.0000   1.0000   1.0000   1.0000
     1.0000   1.0000   1.0000   1.0000   1.0000   1.0000   1.0000   1.0000
     1.0000   1.0000   1.0000   1.0000   1.0000   1.0000   1.0000   1.0000
     1.0000   1.0000   1.0000   1.0000   1.0000   1.0000   1.0000   1.0000
     1.0000   1.0000   1.0000   1.0000   1.0000   1.0000   1.0000   1.0000
     1.0000   1.0000   1.0000   1.0000   1.0000   1.0000   1.0000   1.0000
     1.0000   1.0000   1.0000   1.0000   1.0000   1.0000   1.0000   1.0000
     1.0000   1.0000   1.0000   1.0000   1.0000   1.0000   1.0000   1.0000
     1.0000   1.0000   1.0000   1.0000   1.0000   1.0000   1.0000   1.0000
     1.0000   1.0000   1.0000   1.0000   1.0000   1.0000   1.0000   1.0000
     1.0000   1.0000   1.0000   1.0000   1.0000   1.0000   1.0000   1.0000
     1.0000   1.0000   1.0000   1.0000   1.0000   1.0000   1.0000   1.0000
     1.0000   1.0000   1.0000   1.0000   1.0000   1.0000   1.0000   1.0000
     1.0000   1.0000   1.0000   1.0000   1.0000   1.0000   1.0000   1.0000
     1.0000   1.0000   1.0000   1.0000   1.0000   1.0000   1.0000   1.0000
     1.0000   1.0000   1.0000   1.0000   1.0000   1.0000   1.0000   1.0000
     1.0000   1.0000   1.0000   1.0000   1.0000   1.0000   1.0000   1.0000
     1.0000   1.0000   1.0000   1.0000   1.0000   1.0000   1.0000   1.0000
     1.0000   1.0000   1.0000   1.0000   1.0000   1.0000   1.0000   1.0000
     1.0000   1.0000   1.0000   1.0000   1.0000   1.0000   1.0000   1.0000
     1.0000   1.0000   1.0000   1.0000   1.0000   1.0000   1.0000   1.0000
     1.0000   1.0000   1.0000   1.0000   1.0000   1.0000   1.0000   1.0000
     1.0000   1.0000   1.0000   1.0000   1.0000   1.0000   1.0000   1.0000
[...]
     atom   44 type  1   force =     0.00000003   -0.00000000   -0.00000003
     atom   45 type  1   force =    -0.00000006    0.00000006    0.00000006
     atom   46 type  1   force =     0.00000006   -0.00000000   -0.00000000
     atom   47 type  1   force =    -0.00000006    0.00000006   -0.00000006
     atom   48 type  1   force =     0.00000003   -0.00000000    0.00000003
     atom   49 type  1   force =    -0.00000004   -0.00000004    0.00000000
     atom   50 type  1   force =     0.00000005    0.00000005   -0.00000005
     atom   51 type  1   force =    -0.00000006   -0.00000006    0.00000006
     atom   52 type  1   force =     0.00000003    0.00000003   -0.00000000
     atom   53 type  1   force =    -0.00000006   -0.00000006   -0.00000006
     atom   54 type  1   force =     0.00000005    0.00000005    0.00000005
     The Hubbard contrib.    to forces
     atom    1 type  1   force =     0.00000000    0.00000000    0.00000000
     atom    2 type  1   force =     0.00000000    0.00000000    0.00000000
     atom    3 type  1   force =     0.00000000    0.00000000    0.00000000
     atom    4 type  1   force =     0.00000000    0.00000000    0.00000000
     atom    5 type  1   force =     0.00000000    0.00000000    0.00000000
     atom    6 type  1   force =     0.00000000    0.00000000    0.00000000
     atom    7 type  1   force =     0.00000000    0.00000000    0.00000000
     atom    8 type  1   force =     0.00000000    0.00000000    0.00000000
     atom    9 type  1   force =     0.00000000    0.00000000    0.00000000
     atom   10 type  1   force =     0.00000000    0.00000000    0.00000000
     atom   11 type  1   force =     0.00000000    0.00000000    0.00000000
     atom   12 type  1   force =     0.00000000    0.00000000    0.00000000
     atom   13 type  1   force =     0.00000000    0.00000000    0.00000000
     atom   14 type  1   force =     0.00000000    0.00000000    0.00000000
     atom   15 type  1   force =     0.00000000    0.00000000    0.00000000
     atom   16 type  1   force =     0.00000000    0.00000000    0.00000000
     atom   17 type  1   force =     0.00000000    0.00000000    0.00000000
     atom   18 type  1   force =     0.00000000    0.00000000    0.00000000
     atom   19 type  1   force =     0.00000000    0.00000000    0.00000000
     atom   20 type  1   force =     0.00000000    0.00000000    0.00000000
     atom   21 type  1   force =     0.00000000    0.00000000    0.00000000
     atom   22 type  1   force =     0.00000000    0.00000000    0.00000000
     atom   23 type  1   force =     0.00000000    0.00000000    0.00000000
     atom   24 type  1   force =     0.00000000    0.00000000    0.00000000
     atom   25 type  1   force =     0.00000000    0.00000000    0.00000000
     atom   26 type  1   force =     0.00000000    0.00000000    0.00000000
     atom   27 type  1   force =     0.00000000    0.00000000    0.00000000
     atom   28 type  1   force =     0.00000000    0.00000000    0.00000000
     atom   29 type  1   force =     0.00000000    0.00000000    0.00000000
     atom   30 type  1   force =     0.00000000    0.00000000    0.00000000
     atom   31 type  1   force =     0.00000000    0.00000000    0.00000000
     atom   32 type  1   force =     0.00000000    0.00000000    0.00000000
     atom   33 type  1   force =     0.00000000    0.00000000    0.00000000
     atom   34 type  1   force =     0.00000000    0.00000000    0.00000000
     atom   35 type  1   force =     0.00000000    0.00000000    0.00000000
     atom   36 type  1   force =     0.00000000    0.00000000    0.00000000
     atom   37 type  1   force =     0.00000000    0.00000000    0.00000000
     atom   38 type  1   force =     0.00000000    0.00000000    0.00000000
     atom   39 type  1   force =     0.00000000    0.00000000    0.00000000
     atom   40 type  1   force =     0.00000000    0.00000000    0.00000000
     atom   41 type  1   force =     0.00000000    0.00000000    0.00000000
     atom   42 type  1   force =     0.00000000    0.00000000    0.00000000
     atom   43 type  1   force =     0.00000000    0.00000000    0.00000000
     atom   44 type  1   force =     0.00000000    0.00000000    0.00000000
     atom   45 type  1   force =     0.00000000    0.00000000    0.00000000
     atom   46 type  1   force =     0.00000000    0.00000000    0.00000000
     atom   47 type  1   force =     0.00000000    0.00000000    0.00000000
     atom   48 type  1   force =     0.00000000    0.00000000    0.00000000
     atom   49 type  1   force =     0.00000000    0.00000000    0.00000000
     atom   50 type  1   force =     0.00000000    0.00000000    0.00000000
     atom   51 type  1   force =     0.00000000    0.00000000    0.00000000
     atom   52 type  1   force =     0.00000000    0.00000000    0.00000000
     atom   53 type  1   force =     0.00000000    0.00000000    0.00000000
     atom   54 type  1   force =     0.00000000    0.00000000    0.00000000
     The SCF correction term to forces
     atom    1 type  1   force =     0.00000000    0.00000000   -0.00000000
     atom    2 type  1   force =     0.00001268    0.00001268    0.00001268
     atom    3 type  1   force =     0.00000000   -0.00000000    0.00002316
     atom    4 type  1   force =    -0.00000190   -0.00000190    0.00000000
     atom    5 type  1   force =    -0.00000000    0.00000000   -0.00002316
     atom    6 type  1   force =     0.00001268    0.00001268   -0.00001268
     atom    7 type  1   force =     0.00000000    0.00002316   -0.00000000
     atom    8 type  1   force =    -0.00000190    0.00000000   -0.00000190
     atom    9 type  1   force =     0.00000000   -0.00002012   -0.00002012
     atom   10 type  1   force =     0.00001662    0.00000000    0.00000000
     atom   11 type  1   force =    -0.00000000   -0.00002012    0.00002012
     atom   12 type  1   force =    -0.00000190    0.00000000    0.00000190
     atom   13 type  1   force =     0.00000000   -0.00002316   -0.00000000
     atom   14 type  1   force =     0.00001268   -0.00001268    0.00001268
     atom   15 type  1   force =     0.00000000    0.00002012   -0.00002012
     atom   16 type  1   force =    -0.00000190    0.00000190    0.00000000
     atom   17 type  1   force =    -0.00000000    0.00002012    0.00002012
     atom   18 type  1   force =     0.00001268   -0.00001268   -0.00001268
     atom   19 type  1   force =     0.00002316    0.00000000   -0.00000000
     atom   20 type  1   force =     0.00000000   -0.00000190   -0.00000190
     atom   21 type  1   force =    -0.00002012    0.00000000   -0.00002012
     atom   22 type  1   force =     0.00000000    0.00001662    0.00000000
     atom   23 type  1   force =    -0.00002012   -0.00000000    0.00002012
     atom   24 type  1   force =     0.00000000   -0.00000190    0.00000190
     atom   25 type  1   force =    -0.00002012   -0.00002012   -0.00000000
     atom   26 type  1   force =     0.00000000    0.00000000    0.00001662
     atom   27 type  1   force =    -0.00002527   -0.00002527   -0.00002527
     atom   28 type  1   force =     0.00000000    0.00000000    0.00000000
     atom   29 type  1   force =    -0.00002527   -0.00002527    0.00002527
     atom   30 type  1   force =     0.00000000    0.00000000   -0.00001662
     atom   31 type  1   force =    -0.00002012    0.00002012   -0.00000000
     atom   32 type  1   force =    -0.00000000    0.00000190   -0.00000190
     atom   33 type  1   force =    -0.00002527    0.00002527   -0.00002527
     atom   34 type  1   force =     0.00000000   -0.00001662    0.00000000
     atom   35 type  1   force =    -0.00002527    0.00002527    0.00002527
     atom   36 type  1   force =     0.00000000    0.00000190    0.00000190
     atom   37 type  1   force =    -0.00002316   -0.00000000   -0.00000000
     atom   38 type  1   force =    -0.00001268    0.00001268    0.00001268
     atom   39 type  1   force =     0.00002012    0.00000000   -0.00002012
     atom   40 type  1   force =     0.00000190   -0.00000190    0.00000000
     atom   41 type  1   force =     0.00002012   -0.00000000    0.00002012
     atom   42 type  1   force =    -0.00001268    0.00001268   -0.00001268
     atom   43 type  1   force =     0.00002012   -0.00002012   -0.00000000
     atom   44 type  1   force =     0.00000190    0.00000000   -0.00000190
     atom   45 type  1   force =     0.00002527   -0.00002527   -0.00002527
     atom   46 type  1   force =    -0.00001662    0.00000000    0.00000000
     atom   47 type  1   force =     0.00002527   -0.00002527    0.00002527
     atom   48 type  1   force =     0.00000190   -0.00000000    0.00000190
     atom   49 type  1   force =     0.00002012    0.00002012   -0.00000000
     atom   50 type  1   force =    -0.00001268   -0.00001268    0.00001268
     atom   51 type  1   force =     0.00002527    0.00002527   -0.00002527
     atom   52 type  1   force =     0.00000190    0.00000190    0.00000000
     atom   53 type  1   force =     0.00002527    0.00002527    0.00002527
     atom   54 type  1   force =    -0.00001268   -0.00001268   -0.00001268

     Total force =     0.000055     Total SCF correction =     0.000184
     SCF correction compared to forces is large: reduce conv_thr to get better values


     Computing stress (Cartesian axis) and pressure

          total   stress  (Ry/bohr**3)                   (kbar)     P=     -238.51
  -0.00162133   0.00000000   0.00000000         -238.51        0.00        0.00
   0.00000000  -0.00162133   0.00000000            0.00     -238.51        0.00
   0.00000000   0.00000000  -0.00162133            0.00        0.00     -238.51

     kinetic stress (kbar)  78713.38      0.00      0.00
                                0.00  78713.38      0.00
                                0.00      0.00  78713.38

     local   stress (kbar)  66083.16     -0.00      0.00
                               -0.00  66083.16     -0.00
                                0.00     -0.00  66083.16

     nonloc. stress (kbar) -61544.36      0.00      0.00
                                0.00 -61544.36      0.00
                                0.00      0.00 -61544.36

     hartree stress (kbar)  40915.03      0.00     -0.00
                                0.00  40915.03      0.00
                               -0.00      0.00  40915.03

     exc-cor stress (kbar)  -2397.50      0.00      0.00
                                0.00  -2397.50      0.00
                                0.00      0.00  -2397.50

     corecor stress (kbar) -16128.27      0.00      0.00
                                0.00 -16128.27      0.00
                                0.00      0.00 -16128.27

     ewald   stress (kbar)-105879.93      0.00      0.00
                                0.00-105879.93     -0.00
                                0.00     -0.00-105879.93

     hubbard stress (kbar)      0.00      0.00      0.00
                                0.00      0.00      0.00
                                0.00      0.00      0.00

     DFT-D   stress (kbar)      0.00      0.00      0.00
                                0.00      0.00      0.00
                                0.00      0.00      0.00

     XDM     stress (kbar)      0.00      0.00      0.00
                                0.00      0.00      0.00
                                0.00      0.00      0.00

     dft-nl  stress (kbar)      0.00      0.00      0.00
                                0.00      0.00      0.00
                                0.00      0.00      0.00

     TS-vdW  stress (kbar)      0.00      0.00      0.00
                                0.00      0.00      0.00
                                0.00      0.00      0.00

     MDB     stress (kbar)      0.00      0.00      0.00
                                0.00      0.00      0.00
                                0.00      0.00      0.00

     3D-RISM stress (kbar)      0.00      0.00      0.00
                                0.00      0.00      0.00
                                0.00      0.00      0.00


     BFGS Geometry Optimization
     Energy error            =      0.0E+00 Ry
     Gradient error          =      8.2E-06 Ry/Bohr

     bfgs converged in   1 scf cycles and   0 bfgs steps
     (criteria: energy <  1.0E-04 Ry, force <  1.0E-03 Ry/Bohr)

     End of BFGS Geometry Optimization

     Final energy             =  -13733.8331891770 Ry
Begin final coordinates

ATOMIC_POSITIONS (angstrom)
Fe               0.0000000000        0.0000000000        0.0000000000
Fe               1.4340500000        1.4340500000        1.4340500000
Fe               0.0000000000        0.0000000000        2.8681000000
Fe               1.4340500000        1.4340500000        4.3021500000
Fe               0.0000000000        0.0000000000        5.7362000000
Fe               1.4340500000        1.4340500000        7.1702500000
Fe               0.0000000000        2.8681000000        0.0000000000
Fe               1.4340500000        4.3021500000        1.4340500000
Fe               0.0000000000        2.8681000000        2.8681000000
Fe               1.4340500000        4.3021500000        4.3021500000
Fe               0.0000000000        2.8681000000        5.7362000000
Fe               1.4340500000        4.3021500000        7.1702500000
Fe               0.0000000000        5.7362000000        0.0000000000
Fe               1.4340500000        7.1702500000        1.4340500000
Fe               0.0000000000        5.7362000000        2.8681000000
Fe               1.4340500000        7.1702500000        4.3021500000
Fe               0.0000000000        5.7362000000        5.7362000000
Fe               1.4340500000        7.1702500000        7.1702500000
Fe               2.8681000000        0.0000000000        0.0000000000
Fe               4.3021500000        1.4340500000        1.4340500000
Fe               2.8681000000        0.0000000000        2.8681000000
Fe               4.3021500000        1.4340500000        4.3021500000
Fe               2.8681000000        0.0000000000        5.7362000000
Fe               4.3021500000        1.4340500000        7.1702500000
Fe               2.8681000000        2.8681000000        0.0000000000
Fe               4.3021500000        4.3021500000        1.4340500000
Fe               2.8681000000        2.8681000000        2.8681000000
Fe               4.3021500000        4.3021500000        4.3021500000
Fe               2.8681000000        2.8681000000        5.7362000000
Fe               4.3021500000        4.3021500000        7.1702500000
Fe               2.8681000000        5.7362000000        0.0000000000
Fe               4.3021500000        7.1702500000        1.4340500000
Fe               2.8681000000        5.7362000000        2.8681000000
Fe               4.3021500000        7.1702500000        4.3021500000
Fe               2.8681000000        5.7362000000        5.7362000000
Fe               4.3021500000        7.1702500000        7.1702500000
Fe               5.7362000000        0.0000000000        0.0000000000
Fe               7.1702500000        1.4340500000        1.4340500000
Fe               5.7362000000        0.0000000000        2.8681000000
Fe               7.1702500000        1.4340500000        4.3021500000
Fe               5.7362000000        0.0000000000        5.7362000000
Fe               7.1702500000        1.4340500000        7.1702500000
Fe               5.7362000000        2.8681000000        0.0000000000
Fe               7.1702500000        4.3021500000        1.4340500000
Fe               5.7362000000        2.8681000000        2.8681000000
Fe               7.1702500000        4.3021500000        4.3021500000
Fe               5.7362000000        2.8681000000        5.7362000000
Fe               7.1702500000        4.3021500000        7.1702500000
Fe               5.7362000000        5.7362000000        0.0000000000
Fe               7.1702500000        7.1702500000        1.4340500000
Fe               5.7362000000        5.7362000000        2.8681000000
Fe               7.1702500000        7.1702500000        4.3021500000
Fe               5.7362000000        5.7362000000        5.7362000000
Fe               7.1702500000        7.1702500000        7.1702500000
End final coordinates


     Message from routine punch:
     Nothing written, as per user request (disk_io='none')

     init_run     :     46.57s CPU     48.57s WALL (       1 calls)
     electrons    :   3455.58s CPU   3615.19s WALL (       1 calls)
     forces       :     18.69s CPU     19.64s WALL (       1 calls)
     stress       :    414.53s CPU    423.83s WALL (       1 calls)

     Called by init_run:
     wfcinit      :     43.21s CPU     44.77s WALL (       1 calls)
     wfcinit:atom :      0.14s CPU      0.26s WALL (       7 calls)
     wfcinit:wfcr :     41.76s CPU     43.03s WALL (       7 calls)
     potinit      :      0.92s CPU      1.11s WALL (       1 calls)
     hinit0       :      1.06s CPU      1.13s WALL (       1 calls)

     Called by electrons:
     c_bands      :   2940.00s CPU   3067.30s WALL (      34 calls)
     sum_band     :    491.66s CPU    517.98s WALL (      34 calls)
     v_of_rho     :     16.28s CPU     20.26s WALL (      34 calls)
     v_h          :      1.34s CPU      1.78s WALL (      34 calls)
     v_xc         :     15.73s CPU     19.47s WALL (      36 calls)
     newd         :      5.16s CPU      6.59s WALL (      34 calls)
     mix_rho      :      0.58s CPU      0.78s WALL (      34 calls)

     Called by c_bands:
     init_us_2    :     37.45s CPU     38.20s WALL (     497 calls)
     cegterg      :   2820.55s CPU   2935.13s WALL (     238 calls)

     Called by sum_band:
     sum_band:wei :      0.34s CPU      0.39s WALL (      34 calls)
     sum_band:loo :    455.83s CPU    475.08s WALL (      34 calls)
     sum_band:buf :      5.58s CPU      5.79s WALL (     238 calls)
     sum_band:ini :     12.71s CPU     12.85s WALL (     238 calls)
     sum_band:cal :    126.48s CPU    131.72s WALL (     238 calls)
     sum_band:bec :      1.46s CPU      1.48s WALL (     238 calls)
     addusdens    :      4.53s CPU      6.31s WALL (      34 calls)
                                        0.00s GPU  (      34 calls)
     addusd:skk   :      0.45s CPU      0.49s WALL (      34 calls)
                                        0.00s GPU  (      34 calls)

     Called by *egterg:
     cdiaghg      :    131.89s CPU    147.21s WALL (     729 calls)
     cegterg:over :    274.52s CPU    282.54s WALL (     498 calls)
     cegterg:upda :    171.34s CPU    178.86s WALL (     498 calls)
     cegterg:last :    299.41s CPU    308.05s WALL (     365 calls)
     cdiaghg:chol :     10.74s CPU     12.48s WALL (     729 calls)
     cdiaghg:inve :     11.29s CPU     13.36s WALL (     729 calls)
     cdiaghg:para :     27.97s CPU     33.09s WALL (    1458 calls)
     h_psi        :   1602.23s CPU   1659.66s WALL (     743 calls)
     s_psi        :    257.01s CPU    259.58s WALL (     743 calls)
     g_psi        :      3.55s CPU      3.61s WALL (     498 calls)

     Called by h_psi:
     h_psi:calbec :    278.02s CPU    288.29s WALL (     743 calls)
     vloc_psi     :   1057.74s CPU   1093.71s WALL (     743 calls)
     add_vuspsi   :    256.33s CPU    258.99s WALL (     743 calls)

     General routines
     calbec       :    440.04s CPU    459.13s WALL (    1016 calls)
     fft          :     10.87s CPU     13.32s WALL (     466 calls)
     ffts         :      0.68s CPU      0.81s WALL (      68 calls)
     fftw         :    689.70s CPU    728.27s WALL (  668022 calls)
     interpolate  :      1.47s CPU      1.66s WALL (      34 calls)

     Parallel routines

     PWSCF        :   3936.92s CPU   4109.93s WALL


   This run was terminated on:  20:16:14   3Jun2025            

=------------------------------------------------------------------------------=
   JOB DONE.
=------------------------------------------------------------------------------=
