
     Program PWSCF v.7.3.1 starts on 24May2025 at 11:17:21 

     This program is part of the open-source Quantum ESPRESSO suite
     for quantum simulation of materials; please cite
         "P. Giannozzi et al., J. Phys.:Condens. Matter 21 395502 (2009);
         "P. Giannozzi et al., J. Phys.:Condens. Matter 29 465901 (2017);
         "P. Giannozzi et al., J. Chem. Phys. 152 154105 (2020);
          URL http://www.quantum-espresso.org", 
     in publications or presentations arising from this work. More details at
     http://www.quantum-espresso.org/quote

     Parallel version (MPI & OpenMP), running on       8 processor cores
     Number of MPI processes:                 8
     Threads/MPI process:                     1

     MPI processes distributed on     1 nodes
     490846 MiB available memory on the printing compute node when the environment starts

     Waiting for input...
     Reading input from standard input

     Current dimensions of program PWSCF are:
     Max number of different atomic species (ntypx) = 10
     Max number of k-points (npk) =  40000
     Max angular momentum in pseudopotentials (lmaxx) =  4
     file Fe.pbe-spn-kjpaw_psl.1.0.0.UPF: wavefunction(s)  3P 3D renormalized
     Found identity + ( -0.5000 -0.5000 -0.5000) symmetry
     This is a supercell, fractional translations are disabled
     Message from routine setup:
     using ibrav=0 with symmetry is DISCOURAGED, use correct ibrav instead

     R & G space division:  proc/nbgrp/npool/nimage =       8
     Subspace diagonalization in iterative solution of the eigenvalue problem:
     a serial algorithm will be used


     Parallelization info
     --------------------
     sticks:   dense  smooth     PW     G-vecs:    dense   smooth      PW
     Min         317     105     31                11929     2289     383
     Max         318     106     32                11930     2292     386
     Sum        2537     845    253                95433    18325    3071

     Using Slab Decomposition



     bravais-lattice index     =            0
     lattice parameter (alat)  =       5.4199  a.u.
     unit-cell volume          =     159.2133 (a.u.)^3
     number of atoms/cell      =            2
     number of atomic types    =            1
     number of electrons       =        32.00
     number of Kohn-Sham states=           20
     kinetic-energy cutoff     =      90.0000  Ry
     charge density cutoff     =    1080.0000  Ry
     scf convergence threshold =      1.0E-08
     mixing beta               =       0.2000
     number of iterations used =            8  plain     mixing
     Exchange-correlation= SLA  PW   PBX  PBC
                           (   1   4   3   4   0   0   0)

     celldm(1)=   5.419923  celldm(2)=   0.000000  celldm(3)=   0.000000
     celldm(4)=   0.000000  celldm(5)=   0.000000  celldm(6)=   0.000000

     crystal axes: (cart. coord. in units of alat)
               a(1) = (   1.000000   0.000000   0.000000 )  
               a(2) = (   0.000000   1.000000   0.000000 )  
               a(3) = (   0.000000   0.000000   1.000000 )  

     reciprocal axes: (cart. coord. in units 2 pi/alat)
               b(1) = (  1.000000  0.000000  0.000000 )  
               b(2) = (  0.000000  1.000000  0.000000 )  
               b(3) = (  0.000000  0.000000  1.000000 )  


     PseudoPot. # 1 for Fe read from file:
     ./pseudo/Fe.pbe-spn-kjpaw_psl.1.0.0.UPF
     MD5 check sum: fc81f059e5c5069939230b1155715ae8
     Pseudo is Projector augmented-wave + core cor, Zval = 16.0
     Generated using &quot;atomic&quot; code by A. Dal Corso  v.6.3
     Shape of augmentation charge: PSQ
     Using radial grid of 1191 points,  6 beta functions with: 
                l(1) =   0
                l(2) =   0
                l(3) =   1
                l(4) =   1
                l(5) =   2
                l(6) =   2
     Q(r) pseudized with 0 coefficients 


     atomic species   valence    mass     pseudopotential
     Fe               16.00    55.84500     Fe( 1.00)

     Starting magnetic structure 
     atomic species   magnetization
     Fe              0.400

     48 Sym. Ops., with inversion, found


                                    s                        frac. trans.

      isym =  1     identity                                     

 cryst.   s( 1) = (     1          0          0      )
                  (     0          1          0      )
                  (     0          0          1      )

 cart.    s( 1) = (  1.0000000  0.0000000  0.0000000 )
                  (  0.0000000  1.0000000  0.0000000 )
                  (  0.0000000  0.0000000  1.0000000 )


      isym =  2     180 deg rotation - cart. axis [0,0,1]        

 cryst.   s( 2) = (    -1          0          0      )
                  (     0         -1          0      )
                  (     0          0          1      )

 cart.    s( 2) = ( -1.0000000  0.0000000  0.0000000 )
                  (  0.0000000 -1.0000000  0.0000000 )
                  (  0.0000000  0.0000000  1.0000000 )


      isym =  3     180 deg rotation - cart. axis [0,1,0]        

 cryst.   s( 3) = (    -1          0          0      )
                  (     0          1          0      )
                  (     0          0         -1      )

 cart.    s( 3) = ( -1.0000000  0.0000000  0.0000000 )
                  (  0.0000000  1.0000000  0.0000000 )
                  (  0.0000000  0.0000000 -1.0000000 )


      isym =  4     180 deg rotation - cart. axis [1,0,0]        

 cryst.   s( 4) = (     1          0          0      )
                  (     0         -1          0      )
                  (     0          0         -1      )

 cart.    s( 4) = (  1.0000000  0.0000000  0.0000000 )
                  (  0.0000000 -1.0000000  0.0000000 )
                  (  0.0000000  0.0000000 -1.0000000 )


      isym =  5     180 deg rotation - cart. axis [1,1,0]        

 cryst.   s( 5) = (     0          1          0      )
                  (     1          0          0      )
                  (     0          0         -1      )

 cart.    s( 5) = (  0.0000000  1.0000000  0.0000000 )
                  (  1.0000000  0.0000000  0.0000000 )
                  (  0.0000000  0.0000000 -1.0000000 )


      isym =  6     180 deg rotation - cart. axis [1,-1,0]       

 cryst.   s( 6) = (     0         -1          0      )
                  (    -1          0          0      )
                  (     0          0         -1      )

 cart.    s( 6) = (  0.0000000 -1.0000000  0.0000000 )
                  ( -1.0000000  0.0000000  0.0000000 )
                  (  0.0000000  0.0000000 -1.0000000 )


      isym =  7      90 deg rotation - cart. axis [0,0,-1]       

 cryst.   s( 7) = (     0         -1          0      )
                  (     1          0          0      )
                  (     0          0          1      )

 cart.    s( 7) = (  0.0000000  1.0000000  0.0000000 )
                  ( -1.0000000  0.0000000  0.0000000 )
                  (  0.0000000  0.0000000  1.0000000 )


      isym =  8      90 deg rotation - cart. axis [0,0,1]        

 cryst.   s( 8) = (     0          1          0      )
                  (    -1          0          0      )
                  (     0          0          1      )

 cart.    s( 8) = (  0.0000000 -1.0000000  0.0000000 )
                  (  1.0000000  0.0000000  0.0000000 )
                  (  0.0000000  0.0000000  1.0000000 )


      isym =  9     180 deg rotation - cart. axis [1,0,1]        

 cryst.   s( 9) = (     0          0          1      )
                  (     0         -1          0      )
                  (     1          0          0      )

 cart.    s( 9) = (  0.0000000  0.0000000  1.0000000 )
                  (  0.0000000 -1.0000000  0.0000000 )
                  (  1.0000000  0.0000000  0.0000000 )


      isym = 10     180 deg rotation - cart. axis [-1,0,1]       

 cryst.   s(10) = (     0          0         -1      )
                  (     0         -1          0      )
                  (    -1          0          0      )

 cart.    s(10) = (  0.0000000  0.0000000 -1.0000000 )
                  (  0.0000000 -1.0000000  0.0000000 )
                  ( -1.0000000  0.0000000  0.0000000 )


      isym = 11      90 deg rotation - cart. axis [0,1,0]        

 cryst.   s(11) = (     0          0         -1      )
                  (     0          1          0      )
                  (     1          0          0      )

 cart.    s(11) = (  0.0000000  0.0000000  1.0000000 )
                  (  0.0000000  1.0000000  0.0000000 )
                  ( -1.0000000  0.0000000  0.0000000 )


      isym = 12      90 deg rotation - cart. axis [0,-1,0]       

 cryst.   s(12) = (     0          0          1      )
                  (     0          1          0      )
                  (    -1          0          0      )

 cart.    s(12) = (  0.0000000  0.0000000 -1.0000000 )
                  (  0.0000000  1.0000000  0.0000000 )
                  (  1.0000000  0.0000000  0.0000000 )


      isym = 13     180 deg rotation - cart. axis [0,1,1]        

 cryst.   s(13) = (    -1          0          0      )
                  (     0          0          1      )
                  (     0          1          0      )

 cart.    s(13) = ( -1.0000000  0.0000000  0.0000000 )
                  (  0.0000000  0.0000000  1.0000000 )
                  (  0.0000000  1.0000000  0.0000000 )


      isym = 14     180 deg rotation - cart. axis [0,1,-1]       

 cryst.   s(14) = (    -1          0          0      )
                  (     0          0         -1      )
                  (     0         -1          0      )

 cart.    s(14) = ( -1.0000000  0.0000000  0.0000000 )
                  (  0.0000000  0.0000000 -1.0000000 )
                  (  0.0000000 -1.0000000  0.0000000 )


      isym = 15      90 deg rotation - cart. axis [-1,0,0]       

 cryst.   s(15) = (     1          0          0      )
                  (     0          0         -1      )
                  (     0          1          0      )

 cart.    s(15) = (  1.0000000  0.0000000  0.0000000 )
                  (  0.0000000  0.0000000  1.0000000 )
                  (  0.0000000 -1.0000000  0.0000000 )


      isym = 16      90 deg rotation - cart. axis [1,0,0]        

 cryst.   s(16) = (     1          0          0      )
                  (     0          0          1      )
                  (     0         -1          0      )

 cart.    s(16) = (  1.0000000  0.0000000  0.0000000 )
                  (  0.0000000  0.0000000 -1.0000000 )
                  (  0.0000000  1.0000000  0.0000000 )


      isym = 17     120 deg rotation - cart. axis [-1,-1,-1]     

 cryst.   s(17) = (     0          0          1      )
                  (     1          0          0      )
                  (     0          1          0      )

 cart.    s(17) = (  0.0000000  1.0000000  0.0000000 )
                  (  0.0000000  0.0000000  1.0000000 )
                  (  1.0000000  0.0000000  0.0000000 )


      isym = 18     120 deg rotation - cart. axis [-1,1,1]       

 cryst.   s(18) = (     0          0         -1      )
                  (    -1          0          0      )
                  (     0          1          0      )

 cart.    s(18) = (  0.0000000 -1.0000000  0.0000000 )
                  (  0.0000000  0.0000000  1.0000000 )
                  ( -1.0000000  0.0000000  0.0000000 )


      isym = 19     120 deg rotation - cart. axis [1,1,-1]       

 cryst.   s(19) = (     0          0         -1      )
                  (     1          0          0      )
                  (     0         -1          0      )

 cart.    s(19) = (  0.0000000  1.0000000  0.0000000 )
                  (  0.0000000  0.0000000 -1.0000000 )
                  ( -1.0000000  0.0000000  0.0000000 )


      isym = 20     120 deg rotation - cart. axis [1,-1,1]       

 cryst.   s(20) = (     0          0          1      )
                  (    -1          0          0      )
                  (     0         -1          0      )

 cart.    s(20) = (  0.0000000 -1.0000000  0.0000000 )
                  (  0.0000000  0.0000000 -1.0000000 )
                  (  1.0000000  0.0000000  0.0000000 )


      isym = 21     120 deg rotation - cart. axis [1,1,1]        

 cryst.   s(21) = (     0          1          0      )
                  (     0          0          1      )
                  (     1          0          0      )

 cart.    s(21) = (  0.0000000  0.0000000  1.0000000 )
                  (  1.0000000  0.0000000  0.0000000 )
                  (  0.0000000  1.0000000  0.0000000 )


      isym = 22     120 deg rotation - cart. axis [-1,1,-1]      

 cryst.   s(22) = (     0         -1          0      )
                  (     0          0         -1      )
                  (     1          0          0      )

 cart.    s(22) = (  0.0000000  0.0000000  1.0000000 )
                  ( -1.0000000  0.0000000  0.0000000 )
                  (  0.0000000 -1.0000000  0.0000000 )


      isym = 23     120 deg rotation - cart. axis [1,-1,-1]      

 cryst.   s(23) = (     0         -1          0      )
                  (     0          0          1      )
                  (    -1          0          0      )

 cart.    s(23) = (  0.0000000  0.0000000 -1.0000000 )
                  ( -1.0000000  0.0000000  0.0000000 )
                  (  0.0000000  1.0000000  0.0000000 )


      isym = 24     120 deg rotation - cart. axis [-1,-1,1]      

 cryst.   s(24) = (     0          1          0      )
                  (     0          0         -1      )
                  (    -1          0          0      )

 cart.    s(24) = (  0.0000000  0.0000000 -1.0000000 )
                  (  1.0000000  0.0000000  0.0000000 )
                  (  0.0000000 -1.0000000  0.0000000 )


      isym = 25     inversion                                    

 cryst.   s(25) = (    -1          0          0      )
                  (     0         -1          0      )
                  (     0          0         -1      )

 cart.    s(25) = ( -1.0000000  0.0000000  0.0000000 )
                  (  0.0000000 -1.0000000  0.0000000 )
                  (  0.0000000  0.0000000 -1.0000000 )


      isym = 26     inv. 180 deg rotation - cart. axis [0,0,1]   

 cryst.   s(26) = (     1          0          0      )
                  (     0          1          0      )
                  (     0          0         -1      )

 cart.    s(26) = (  1.0000000  0.0000000  0.0000000 )
                  (  0.0000000  1.0000000  0.0000000 )
                  (  0.0000000  0.0000000 -1.0000000 )


      isym = 27     inv. 180 deg rotation - cart. axis [0,1,0]   

 cryst.   s(27) = (     1          0          0      )
                  (     0         -1          0      )
                  (     0          0          1      )

 cart.    s(27) = (  1.0000000  0.0000000  0.0000000 )
                  (  0.0000000 -1.0000000  0.0000000 )
                  (  0.0000000  0.0000000  1.0000000 )


      isym = 28     inv. 180 deg rotation - cart. axis [1,0,0]   

 cryst.   s(28) = (    -1          0          0      )
                  (     0          1          0      )
                  (     0          0          1      )

 cart.    s(28) = ( -1.0000000  0.0000000  0.0000000 )
                  (  0.0000000  1.0000000  0.0000000 )
                  (  0.0000000  0.0000000  1.0000000 )


      isym = 29     inv. 180 deg rotation - cart. axis [1,1,0]   

 cryst.   s(29) = (     0         -1          0      )
                  (    -1          0          0      )
                  (     0          0          1      )

 cart.    s(29) = (  0.0000000 -1.0000000  0.0000000 )
                  ( -1.0000000  0.0000000  0.0000000 )
                  (  0.0000000  0.0000000  1.0000000 )


      isym = 30     inv. 180 deg rotation - cart. axis [1,-1,0]  

 cryst.   s(30) = (     0          1          0      )
                  (     1          0          0      )
                  (     0          0          1      )

 cart.    s(30) = (  0.0000000  1.0000000  0.0000000 )
                  (  1.0000000  0.0000000  0.0000000 )
                  (  0.0000000  0.0000000  1.0000000 )


      isym = 31     inv.  90 deg rotation - cart. axis [0,0,-1]  

 cryst.   s(31) = (     0          1          0      )
                  (    -1          0          0      )
                  (     0          0         -1      )

 cart.    s(31) = (  0.0000000 -1.0000000  0.0000000 )
                  (  1.0000000  0.0000000  0.0000000 )
                  (  0.0000000  0.0000000 -1.0000000 )


      isym = 32     inv.  90 deg rotation - cart. axis [0,0,1]   

 cryst.   s(32) = (     0         -1          0      )
                  (     1          0          0      )
                  (     0          0         -1      )

 cart.    s(32) = (  0.0000000  1.0000000  0.0000000 )
                  ( -1.0000000  0.0000000  0.0000000 )
                  (  0.0000000  0.0000000 -1.0000000 )


      isym = 33     inv. 180 deg rotation - cart. axis [1,0,1]   

 cryst.   s(33) = (     0          0         -1      )
                  (     0          1          0      )
                  (    -1          0          0      )

 cart.    s(33) = (  0.0000000  0.0000000 -1.0000000 )
                  (  0.0000000  1.0000000  0.0000000 )
                  ( -1.0000000  0.0000000  0.0000000 )


      isym = 34     inv. 180 deg rotation - cart. axis [-1,0,1]  

 cryst.   s(34) = (     0          0          1      )
                  (     0          1          0      )
                  (     1          0          0      )

 cart.    s(34) = (  0.0000000  0.0000000  1.0000000 )
                  (  0.0000000  1.0000000  0.0000000 )
                  (  1.0000000  0.0000000  0.0000000 )


      isym = 35     inv.  90 deg rotation - cart. axis [0,1,0]   

 cryst.   s(35) = (     0          0          1      )
                  (     0         -1          0      )
                  (    -1          0          0      )

 cart.    s(35) = (  0.0000000  0.0000000 -1.0000000 )
                  (  0.0000000 -1.0000000  0.0000000 )
                  (  1.0000000  0.0000000  0.0000000 )


      isym = 36     inv.  90 deg rotation - cart. axis [0,-1,0]  

 cryst.   s(36) = (     0          0         -1      )
                  (     0         -1          0      )
                  (     1          0          0      )

 cart.    s(36) = (  0.0000000  0.0000000  1.0000000 )
                  (  0.0000000 -1.0000000  0.0000000 )
                  ( -1.0000000  0.0000000  0.0000000 )


      isym = 37     inv. 180 deg rotation - cart. axis [0,1,1]   

 cryst.   s(37) = (     1          0          0      )
                  (     0          0         -1      )
                  (     0         -1          0      )

 cart.    s(37) = (  1.0000000  0.0000000  0.0000000 )
                  (  0.0000000  0.0000000 -1.0000000 )
                  (  0.0000000 -1.0000000  0.0000000 )


      isym = 38     inv. 180 deg rotation - cart. axis [0,1,-1]  

 cryst.   s(38) = (     1          0          0      )
                  (     0          0          1      )
                  (     0          1          0      )

 cart.    s(38) = (  1.0000000  0.0000000  0.0000000 )
                  (  0.0000000  0.0000000  1.0000000 )
                  (  0.0000000  1.0000000  0.0000000 )


      isym = 39     inv.  90 deg rotation - cart. axis [-1,0,0]  

 cryst.   s(39) = (    -1          0          0      )
                  (     0          0          1      )
                  (     0         -1          0      )

 cart.    s(39) = ( -1.0000000  0.0000000  0.0000000 )
                  (  0.0000000  0.0000000 -1.0000000 )
                  (  0.0000000  1.0000000  0.0000000 )


      isym = 40     inv.  90 deg rotation - cart. axis [1,0,0]   

 cryst.   s(40) = (    -1          0          0      )
                  (     0          0         -1      )
                  (     0          1          0      )

 cart.    s(40) = ( -1.0000000  0.0000000  0.0000000 )
                  (  0.0000000  0.0000000  1.0000000 )
                  (  0.0000000 -1.0000000  0.0000000 )


      isym = 41     inv. 120 deg rotation - cart. axis [-1,-1,-1]

 cryst.   s(41) = (     0          0         -1      )
                  (    -1          0          0      )
                  (     0         -1          0      )

 cart.    s(41) = (  0.0000000 -1.0000000  0.0000000 )
                  (  0.0000000  0.0000000 -1.0000000 )
                  ( -1.0000000  0.0000000  0.0000000 )


      isym = 42     inv. 120 deg rotation - cart. axis [-1,1,1]  

 cryst.   s(42) = (     0          0          1      )
                  (     1          0          0      )
                  (     0         -1          0      )

 cart.    s(42) = (  0.0000000  1.0000000  0.0000000 )
                  (  0.0000000  0.0000000 -1.0000000 )
                  (  1.0000000  0.0000000  0.0000000 )


      isym = 43     inv. 120 deg rotation - cart. axis [1,1,-1]  

 cryst.   s(43) = (     0          0          1      )
                  (    -1          0          0      )
                  (     0          1          0      )

 cart.    s(43) = (  0.0000000 -1.0000000  0.0000000 )
                  (  0.0000000  0.0000000  1.0000000 )
                  (  1.0000000  0.0000000  0.0000000 )


      isym = 44     inv. 120 deg rotation - cart. axis [1,-1,1]  

 cryst.   s(44) = (     0          0         -1      )
                  (     1          0          0      )
                  (     0          1          0      )

 cart.    s(44) = (  0.0000000  1.0000000  0.0000000 )
                  (  0.0000000  0.0000000  1.0000000 )
                  ( -1.0000000  0.0000000  0.0000000 )


      isym = 45     inv. 120 deg rotation - cart. axis [1,1,1]   

 cryst.   s(45) = (     0         -1          0      )
                  (     0          0         -1      )
                  (    -1          0          0      )

 cart.    s(45) = (  0.0000000  0.0000000 -1.0000000 )
                  ( -1.0000000  0.0000000  0.0000000 )
                  (  0.0000000 -1.0000000  0.0000000 )


      isym = 46     inv. 120 deg rotation - cart. axis [-1,1,-1] 

 cryst.   s(46) = (     0          1          0      )
                  (     0          0          1      )
                  (    -1          0          0      )

 cart.    s(46) = (  0.0000000  0.0000000 -1.0000000 )
                  (  1.0000000  0.0000000  0.0000000 )
                  (  0.0000000  1.0000000  0.0000000 )


      isym = 47     inv. 120 deg rotation - cart. axis [1,-1,-1] 

 cryst.   s(47) = (     0          1          0      )
                  (     0          0         -1      )
                  (     1          0          0      )

 cart.    s(47) = (  0.0000000  0.0000000  1.0000000 )
                  (  1.0000000  0.0000000  0.0000000 )
                  (  0.0000000 -1.0000000  0.0000000 )


      isym = 48     inv. 120 deg rotation - cart. axis [-1,-1,1] 

 cryst.   s(48) = (     0         -1          0      )
                  (     0          0          1      )
                  (     1          0          0      )

 cart.    s(48) = (  0.0000000  0.0000000  1.0000000 )
                  ( -1.0000000  0.0000000  0.0000000 )
                  (  0.0000000  1.0000000  0.0000000 )


   Cartesian axes

     site n.     atom                  positions (alat units)
         1        Fe     tau(   1) = (   0.0000000   0.0000000   0.0000000  )
         2        Fe     tau(   2) = (   0.5000000   0.5000000   0.5000000  )

   Crystallographic axes

     site n.     atom                  positions (cryst. coord.)
         1        Fe     tau(   1) = (  0.0000000  0.0000000  0.0000000  )
         2        Fe     tau(   2) = (  0.5000000  0.5000000  0.5000000  )

     number of k points=   455  Marzari-Vanderbilt smearing, width (Ry)=  0.0100
                       cart. coord. in units 2pi/alat
        k(    1) = (   0.0000000   0.0000000   0.0000000), wk =   0.0000723
        k(    2) = (   0.0000000   0.0000000   0.0416667), wk =   0.0004340
        k(    3) = (   0.0000000   0.0000000   0.0833333), wk =   0.0004340
        k(    4) = (   0.0000000   0.0000000   0.1250000), wk =   0.0004340
        k(    5) = (   0.0000000   0.0000000   0.1666667), wk =   0.0004340
        k(    6) = (   0.0000000   0.0000000   0.2083333), wk =   0.0004340
        k(    7) = (   0.0000000   0.0000000   0.2500000), wk =   0.0004340
        k(    8) = (   0.0000000   0.0000000   0.2916667), wk =   0.0004340
        k(    9) = (   0.0000000   0.0000000   0.3333333), wk =   0.0004340
        k(   10) = (   0.0000000   0.0000000   0.3750000), wk =   0.0004340
        k(   11) = (   0.0000000   0.0000000   0.4166667), wk =   0.0004340
        k(   12) = (   0.0000000   0.0000000   0.4583333), wk =   0.0004340
        k(   13) = (   0.0000000   0.0000000  -0.5000000), wk =   0.0002170
        k(   14) = (   0.0000000   0.0416667   0.0416667), wk =   0.0008681
        k(   15) = (   0.0000000   0.0416667   0.0833333), wk =   0.0017361
        k(   16) = (   0.0000000   0.0416667   0.1250000), wk =   0.0017361
        k(   17) = (   0.0000000   0.0416667   0.1666667), wk =   0.0017361
        k(   18) = (   0.0000000   0.0416667   0.2083333), wk =   0.0017361
        k(   19) = (   0.0000000   0.0416667   0.2500000), wk =   0.0017361
        k(   20) = (   0.0000000   0.0416667   0.2916667), wk =   0.0017361
        k(   21) = (   0.0000000   0.0416667   0.3333333), wk =   0.0017361
        k(   22) = (   0.0000000   0.0416667   0.3750000), wk =   0.0017361
        k(   23) = (   0.0000000   0.0416667   0.4166667), wk =   0.0017361
        k(   24) = (   0.0000000   0.0416667   0.4583333), wk =   0.0017361
        k(   25) = (   0.0000000   0.0416667  -0.5000000), wk =   0.0008681
        k(   26) = (   0.0000000   0.0833333   0.0833333), wk =   0.0008681
        k(   27) = (   0.0000000   0.0833333   0.1250000), wk =   0.0017361
        k(   28) = (   0.0000000   0.0833333   0.1666667), wk =   0.0017361
        k(   29) = (   0.0000000   0.0833333   0.2083333), wk =   0.0017361
        k(   30) = (   0.0000000   0.0833333   0.2500000), wk =   0.0017361
        k(   31) = (   0.0000000   0.0833333   0.2916667), wk =   0.0017361
        k(   32) = (   0.0000000   0.0833333   0.3333333), wk =   0.0017361
        k(   33) = (   0.0000000   0.0833333   0.3750000), wk =   0.0017361
        k(   34) = (   0.0000000   0.0833333   0.4166667), wk =   0.0017361
        k(   35) = (   0.0000000   0.0833333   0.4583333), wk =   0.0017361
        k(   36) = (   0.0000000   0.0833333  -0.5000000), wk =   0.0008681
        k(   37) = (   0.0000000   0.1250000   0.1250000), wk =   0.0008681
        k(   38) = (   0.0000000   0.1250000   0.1666667), wk =   0.0017361
        k(   39) = (   0.0000000   0.1250000   0.2083333), wk =   0.0017361
        k(   40) = (   0.0000000   0.1250000   0.2500000), wk =   0.0017361
        k(   41) = (   0.0000000   0.1250000   0.2916667), wk =   0.0017361
        k(   42) = (   0.0000000   0.1250000   0.3333333), wk =   0.0017361
        k(   43) = (   0.0000000   0.1250000   0.3750000), wk =   0.0017361
        k(   44) = (   0.0000000   0.1250000   0.4166667), wk =   0.0017361
        k(   45) = (   0.0000000   0.1250000   0.4583333), wk =   0.0017361
        k(   46) = (   0.0000000   0.1250000  -0.5000000), wk =   0.0008681
        k(   47) = (   0.0000000   0.1666667   0.1666667), wk =   0.0008681
        k(   48) = (   0.0000000   0.1666667   0.2083333), wk =   0.0017361
        k(   49) = (   0.0000000   0.1666667   0.2500000), wk =   0.0017361
        k(   50) = (   0.0000000   0.1666667   0.2916667), wk =   0.0017361
        k(   51) = (   0.0000000   0.1666667   0.3333333), wk =   0.0017361
        k(   52) = (   0.0000000   0.1666667   0.3750000), wk =   0.0017361
        k(   53) = (   0.0000000   0.1666667   0.4166667), wk =   0.0017361
        k(   54) = (   0.0000000   0.1666667   0.4583333), wk =   0.0017361
        k(   55) = (   0.0000000   0.1666667  -0.5000000), wk =   0.0008681
        k(   56) = (   0.0000000   0.2083333   0.2083333), wk =   0.0008681
        k(   57) = (   0.0000000   0.2083333   0.2500000), wk =   0.0017361
        k(   58) = (   0.0000000   0.2083333   0.2916667), wk =   0.0017361
        k(   59) = (   0.0000000   0.2083333   0.3333333), wk =   0.0017361
        k(   60) = (   0.0000000   0.2083333   0.3750000), wk =   0.0017361
        k(   61) = (   0.0000000   0.2083333   0.4166667), wk =   0.0017361
        k(   62) = (   0.0000000   0.2083333   0.4583333), wk =   0.0017361
        k(   63) = (   0.0000000   0.2083333  -0.5000000), wk =   0.0008681
        k(   64) = (   0.0000000   0.2500000   0.2500000), wk =   0.0008681
        k(   65) = (   0.0000000   0.2500000   0.2916667), wk =   0.0017361
        k(   66) = (   0.0000000   0.2500000   0.3333333), wk =   0.0017361
        k(   67) = (   0.0000000   0.2500000   0.3750000), wk =   0.0017361
        k(   68) = (   0.0000000   0.2500000   0.4166667), wk =   0.0017361
        k(   69) = (   0.0000000   0.2500000   0.4583333), wk =   0.0017361
        k(   70) = (   0.0000000   0.2500000  -0.5000000), wk =   0.0008681
        k(   71) = (   0.0000000   0.2916667   0.2916667), wk =   0.0008681
        k(   72) = (   0.0000000   0.2916667   0.3333333), wk =   0.0017361
        k(   73) = (   0.0000000   0.2916667   0.3750000), wk =   0.0017361
        k(   74) = (   0.0000000   0.2916667   0.4166667), wk =   0.0017361
        k(   75) = (   0.0000000   0.2916667   0.4583333), wk =   0.0017361
        k(   76) = (   0.0000000   0.2916667  -0.5000000), wk =   0.0008681
        k(   77) = (   0.0000000   0.3333333   0.3333333), wk =   0.0008681
        k(   78) = (   0.0000000   0.3333333   0.3750000), wk =   0.0017361
        k(   79) = (   0.0000000   0.3333333   0.4166667), wk =   0.0017361
        k(   80) = (   0.0000000   0.3333333   0.4583333), wk =   0.0017361
        k(   81) = (   0.0000000   0.3333333  -0.5000000), wk =   0.0008681
        k(   82) = (   0.0000000   0.3750000   0.3750000), wk =   0.0008681
        k(   83) = (   0.0000000   0.3750000   0.4166667), wk =   0.0017361
        k(   84) = (   0.0000000   0.3750000   0.4583333), wk =   0.0017361
        k(   85) = (   0.0000000   0.3750000  -0.5000000), wk =   0.0008681
        k(   86) = (   0.0000000   0.4166667   0.4166667), wk =   0.0008681
        k(   87) = (   0.0000000   0.4166667   0.4583333), wk =   0.0017361
        k(   88) = (   0.0000000   0.4166667  -0.5000000), wk =   0.0008681
        k(   89) = (   0.0000000   0.4583333   0.4583333), wk =   0.0008681
        k(   90) = (   0.0000000   0.4583333  -0.5000000), wk =   0.0008681
        k(   91) = (   0.0000000  -0.5000000  -0.5000000), wk =   0.0002170
        k(   92) = (   0.0416667   0.0416667   0.0416667), wk =   0.0005787
        k(   93) = (   0.0416667   0.0416667   0.0833333), wk =   0.0017361
        k(   94) = (   0.0416667   0.0416667   0.1250000), wk =   0.0017361
        k(   95) = (   0.0416667   0.0416667   0.1666667), wk =   0.0017361
        k(   96) = (   0.0416667   0.0416667   0.2083333), wk =   0.0017361
        k(   97) = (   0.0416667   0.0416667   0.2500000), wk =   0.0017361
        k(   98) = (   0.0416667   0.0416667   0.2916667), wk =   0.0017361
        k(   99) = (   0.0416667   0.0416667   0.3333333), wk =   0.0017361
        k(  100) = (   0.0416667   0.0416667   0.3750000), wk =   0.0017361
        k(  101) = (   0.0416667   0.0416667   0.4166667), wk =   0.0017361
        k(  102) = (   0.0416667   0.0416667   0.4583333), wk =   0.0017361
        k(  103) = (   0.0416667   0.0416667  -0.5000000), wk =   0.0008681
        k(  104) = (   0.0416667   0.0833333   0.0833333), wk =   0.0017361
        k(  105) = (   0.0416667   0.0833333   0.1250000), wk =   0.0034722
        k(  106) = (   0.0416667   0.0833333   0.1666667), wk =   0.0034722
        k(  107) = (   0.0416667   0.0833333   0.2083333), wk =   0.0034722
        k(  108) = (   0.0416667   0.0833333   0.2500000), wk =   0.0034722
        k(  109) = (   0.0416667   0.0833333   0.2916667), wk =   0.0034722
        k(  110) = (   0.0416667   0.0833333   0.3333333), wk =   0.0034722
        k(  111) = (   0.0416667   0.0833333   0.3750000), wk =   0.0034722
        k(  112) = (   0.0416667   0.0833333   0.4166667), wk =   0.0034722
        k(  113) = (   0.0416667   0.0833333   0.4583333), wk =   0.0034722
        k(  114) = (   0.0416667   0.0833333  -0.5000000), wk =   0.0017361
        k(  115) = (   0.0416667   0.1250000   0.1250000), wk =   0.0017361
        k(  116) = (   0.0416667   0.1250000   0.1666667), wk =   0.0034722
        k(  117) = (   0.0416667   0.1250000   0.2083333), wk =   0.0034722
        k(  118) = (   0.0416667   0.1250000   0.2500000), wk =   0.0034722
        k(  119) = (   0.0416667   0.1250000   0.2916667), wk =   0.0034722
        k(  120) = (   0.0416667   0.1250000   0.3333333), wk =   0.0034722
        k(  121) = (   0.0416667   0.1250000   0.3750000), wk =   0.0034722
        k(  122) = (   0.0416667   0.1250000   0.4166667), wk =   0.0034722
        k(  123) = (   0.0416667   0.1250000   0.4583333), wk =   0.0034722
        k(  124) = (   0.0416667   0.1250000  -0.5000000), wk =   0.0017361
        k(  125) = (   0.0416667   0.1666667   0.1666667), wk =   0.0017361
        k(  126) = (   0.0416667   0.1666667   0.2083333), wk =   0.0034722
        k(  127) = (   0.0416667   0.1666667   0.2500000), wk =   0.0034722
        k(  128) = (   0.0416667   0.1666667   0.2916667), wk =   0.0034722
        k(  129) = (   0.0416667   0.1666667   0.3333333), wk =   0.0034722
        k(  130) = (   0.0416667   0.1666667   0.3750000), wk =   0.0034722
        k(  131) = (   0.0416667   0.1666667   0.4166667), wk =   0.0034722
        k(  132) = (   0.0416667   0.1666667   0.4583333), wk =   0.0034722
        k(  133) = (   0.0416667   0.1666667  -0.5000000), wk =   0.0017361
        k(  134) = (   0.0416667   0.2083333   0.2083333), wk =   0.0017361
        k(  135) = (   0.0416667   0.2083333   0.2500000), wk =   0.0034722
        k(  136) = (   0.0416667   0.2083333   0.2916667), wk =   0.0034722
        k(  137) = (   0.0416667   0.2083333   0.3333333), wk =   0.0034722
        k(  138) = (   0.0416667   0.2083333   0.3750000), wk =   0.0034722
        k(  139) = (   0.0416667   0.2083333   0.4166667), wk =   0.0034722
        k(  140) = (   0.0416667   0.2083333   0.4583333), wk =   0.0034722
        k(  141) = (   0.0416667   0.2083333  -0.5000000), wk =   0.0017361
        k(  142) = (   0.0416667   0.2500000   0.2500000), wk =   0.0017361
        k(  143) = (   0.0416667   0.2500000   0.2916667), wk =   0.0034722
        k(  144) = (   0.0416667   0.2500000   0.3333333), wk =   0.0034722
        k(  145) = (   0.0416667   0.2500000   0.3750000), wk =   0.0034722
        k(  146) = (   0.0416667   0.2500000   0.4166667), wk =   0.0034722
        k(  147) = (   0.0416667   0.2500000   0.4583333), wk =   0.0034722
        k(  148) = (   0.0416667   0.2500000  -0.5000000), wk =   0.0017361
        k(  149) = (   0.0416667   0.2916667   0.2916667), wk =   0.0017361
        k(  150) = (   0.0416667   0.2916667   0.3333333), wk =   0.0034722
        k(  151) = (   0.0416667   0.2916667   0.3750000), wk =   0.0034722
        k(  152) = (   0.0416667   0.2916667   0.4166667), wk =   0.0034722
        k(  153) = (   0.0416667   0.2916667   0.4583333), wk =   0.0034722
        k(  154) = (   0.0416667   0.2916667  -0.5000000), wk =   0.0017361
        k(  155) = (   0.0416667   0.3333333   0.3333333), wk =   0.0017361
        k(  156) = (   0.0416667   0.3333333   0.3750000), wk =   0.0034722
        k(  157) = (   0.0416667   0.3333333   0.4166667), wk =   0.0034722
        k(  158) = (   0.0416667   0.3333333   0.4583333), wk =   0.0034722
        k(  159) = (   0.0416667   0.3333333  -0.5000000), wk =   0.0017361
        k(  160) = (   0.0416667   0.3750000   0.3750000), wk =   0.0017361
        k(  161) = (   0.0416667   0.3750000   0.4166667), wk =   0.0034722
        k(  162) = (   0.0416667   0.3750000   0.4583333), wk =   0.0034722
        k(  163) = (   0.0416667   0.3750000  -0.5000000), wk =   0.0017361
        k(  164) = (   0.0416667   0.4166667   0.4166667), wk =   0.0017361
        k(  165) = (   0.0416667   0.4166667   0.4583333), wk =   0.0034722
        k(  166) = (   0.0416667   0.4166667  -0.5000000), wk =   0.0017361
        k(  167) = (   0.0416667   0.4583333   0.4583333), wk =   0.0017361
        k(  168) = (   0.0416667   0.4583333  -0.5000000), wk =   0.0017361
        k(  169) = (   0.0416667  -0.5000000  -0.5000000), wk =   0.0004340
        k(  170) = (   0.0833333   0.0833333   0.0833333), wk =   0.0005787
        k(  171) = (   0.0833333   0.0833333   0.1250000), wk =   0.0017361
        k(  172) = (   0.0833333   0.0833333   0.1666667), wk =   0.0017361
        k(  173) = (   0.0833333   0.0833333   0.2083333), wk =   0.0017361
        k(  174) = (   0.0833333   0.0833333   0.2500000), wk =   0.0017361
        k(  175) = (   0.0833333   0.0833333   0.2916667), wk =   0.0017361
        k(  176) = (   0.0833333   0.0833333   0.3333333), wk =   0.0017361
        k(  177) = (   0.0833333   0.0833333   0.3750000), wk =   0.0017361
        k(  178) = (   0.0833333   0.0833333   0.4166667), wk =   0.0017361
        k(  179) = (   0.0833333   0.0833333   0.4583333), wk =   0.0017361
        k(  180) = (   0.0833333   0.0833333  -0.5000000), wk =   0.0008681
        k(  181) = (   0.0833333   0.1250000   0.1250000), wk =   0.0017361
        k(  182) = (   0.0833333   0.1250000   0.1666667), wk =   0.0034722
        k(  183) = (   0.0833333   0.1250000   0.2083333), wk =   0.0034722
        k(  184) = (   0.0833333   0.1250000   0.2500000), wk =   0.0034722
        k(  185) = (   0.0833333   0.1250000   0.2916667), wk =   0.0034722
        k(  186) = (   0.0833333   0.1250000   0.3333333), wk =   0.0034722
        k(  187) = (   0.0833333   0.1250000   0.3750000), wk =   0.0034722
        k(  188) = (   0.0833333   0.1250000   0.4166667), wk =   0.0034722
        k(  189) = (   0.0833333   0.1250000   0.4583333), wk =   0.0034722
        k(  190) = (   0.0833333   0.1250000  -0.5000000), wk =   0.0017361
        k(  191) = (   0.0833333   0.1666667   0.1666667), wk =   0.0017361
        k(  192) = (   0.0833333   0.1666667   0.2083333), wk =   0.0034722
        k(  193) = (   0.0833333   0.1666667   0.2500000), wk =   0.0034722
        k(  194) = (   0.0833333   0.1666667   0.2916667), wk =   0.0034722
        k(  195) = (   0.0833333   0.1666667   0.3333333), wk =   0.0034722
        k(  196) = (   0.0833333   0.1666667   0.3750000), wk =   0.0034722
        k(  197) = (   0.0833333   0.1666667   0.4166667), wk =   0.0034722
        k(  198) = (   0.0833333   0.1666667   0.4583333), wk =   0.0034722
        k(  199) = (   0.0833333   0.1666667  -0.5000000), wk =   0.0017361
        k(  200) = (   0.0833333   0.2083333   0.2083333), wk =   0.0017361
        k(  201) = (   0.0833333   0.2083333   0.2500000), wk =   0.0034722
        k(  202) = (   0.0833333   0.2083333   0.2916667), wk =   0.0034722
        k(  203) = (   0.0833333   0.2083333   0.3333333), wk =   0.0034722
        k(  204) = (   0.0833333   0.2083333   0.3750000), wk =   0.0034722
        k(  205) = (   0.0833333   0.2083333   0.4166667), wk =   0.0034722
        k(  206) = (   0.0833333   0.2083333   0.4583333), wk =   0.0034722
        k(  207) = (   0.0833333   0.2083333  -0.5000000), wk =   0.0017361
        k(  208) = (   0.0833333   0.2500000   0.2500000), wk =   0.0017361
        k(  209) = (   0.0833333   0.2500000   0.2916667), wk =   0.0034722
        k(  210) = (   0.0833333   0.2500000   0.3333333), wk =   0.0034722
        k(  211) = (   0.0833333   0.2500000   0.3750000), wk =   0.0034722
        k(  212) = (   0.0833333   0.2500000   0.4166667), wk =   0.0034722
        k(  213) = (   0.0833333   0.2500000   0.4583333), wk =   0.0034722
        k(  214) = (   0.0833333   0.2500000  -0.5000000), wk =   0.0017361
        k(  215) = (   0.0833333   0.2916667   0.2916667), wk =   0.0017361
        k(  216) = (   0.0833333   0.2916667   0.3333333), wk =   0.0034722
        k(  217) = (   0.0833333   0.2916667   0.3750000), wk =   0.0034722
        k(  218) = (   0.0833333   0.2916667   0.4166667), wk =   0.0034722
        k(  219) = (   0.0833333   0.2916667   0.4583333), wk =   0.0034722
        k(  220) = (   0.0833333   0.2916667  -0.5000000), wk =   0.0017361
        k(  221) = (   0.0833333   0.3333333   0.3333333), wk =   0.0017361
        k(  222) = (   0.0833333   0.3333333   0.3750000), wk =   0.0034722
        k(  223) = (   0.0833333   0.3333333   0.4166667), wk =   0.0034722
        k(  224) = (   0.0833333   0.3333333   0.4583333), wk =   0.0034722
        k(  225) = (   0.0833333   0.3333333  -0.5000000), wk =   0.0017361
        k(  226) = (   0.0833333   0.3750000   0.3750000), wk =   0.0017361
        k(  227) = (   0.0833333   0.3750000   0.4166667), wk =   0.0034722
        k(  228) = (   0.0833333   0.3750000   0.4583333), wk =   0.0034722
        k(  229) = (   0.0833333   0.3750000  -0.5000000), wk =   0.0017361
        k(  230) = (   0.0833333   0.4166667   0.4166667), wk =   0.0017361
        k(  231) = (   0.0833333   0.4166667   0.4583333), wk =   0.0034722
        k(  232) = (   0.0833333   0.4166667  -0.5000000), wk =   0.0017361
        k(  233) = (   0.0833333   0.4583333   0.4583333), wk =   0.0017361
        k(  234) = (   0.0833333   0.4583333  -0.5000000), wk =   0.0017361
        k(  235) = (   0.0833333  -0.5000000  -0.5000000), wk =   0.0004340
        k(  236) = (   0.1250000   0.1250000   0.1250000), wk =   0.0005787
        k(  237) = (   0.1250000   0.1250000   0.1666667), wk =   0.0017361
        k(  238) = (   0.1250000   0.1250000   0.2083333), wk =   0.0017361
        k(  239) = (   0.1250000   0.1250000   0.2500000), wk =   0.0017361
        k(  240) = (   0.1250000   0.1250000   0.2916667), wk =   0.0017361
        k(  241) = (   0.1250000   0.1250000   0.3333333), wk =   0.0017361
        k(  242) = (   0.1250000   0.1250000   0.3750000), wk =   0.0017361
        k(  243) = (   0.1250000   0.1250000   0.4166667), wk =   0.0017361
        k(  244) = (   0.1250000   0.1250000   0.4583333), wk =   0.0017361
        k(  245) = (   0.1250000   0.1250000  -0.5000000), wk =   0.0008681
        k(  246) = (   0.1250000   0.1666667   0.1666667), wk =   0.0017361
        k(  247) = (   0.1250000   0.1666667   0.2083333), wk =   0.0034722
        k(  248) = (   0.1250000   0.1666667   0.2500000), wk =   0.0034722
        k(  249) = (   0.1250000   0.1666667   0.2916667), wk =   0.0034722
        k(  250) = (   0.1250000   0.1666667   0.3333333), wk =   0.0034722
        k(  251) = (   0.1250000   0.1666667   0.3750000), wk =   0.0034722
        k(  252) = (   0.1250000   0.1666667   0.4166667), wk =   0.0034722
        k(  253) = (   0.1250000   0.1666667   0.4583333), wk =   0.0034722
        k(  254) = (   0.1250000   0.1666667  -0.5000000), wk =   0.0017361
        k(  255) = (   0.1250000   0.2083333   0.2083333), wk =   0.0017361
        k(  256) = (   0.1250000   0.2083333   0.2500000), wk =   0.0034722
        k(  257) = (   0.1250000   0.2083333   0.2916667), wk =   0.0034722
        k(  258) = (   0.1250000   0.2083333   0.3333333), wk =   0.0034722
        k(  259) = (   0.1250000   0.2083333   0.3750000), wk =   0.0034722
        k(  260) = (   0.1250000   0.2083333   0.4166667), wk =   0.0034722
        k(  261) = (   0.1250000   0.2083333   0.4583333), wk =   0.0034722
        k(  262) = (   0.1250000   0.2083333  -0.5000000), wk =   0.0017361
        k(  263) = (   0.1250000   0.2500000   0.2500000), wk =   0.0017361
        k(  264) = (   0.1250000   0.2500000   0.2916667), wk =   0.0034722
        k(  265) = (   0.1250000   0.2500000   0.3333333), wk =   0.0034722
        k(  266) = (   0.1250000   0.2500000   0.3750000), wk =   0.0034722
        k(  267) = (   0.1250000   0.2500000   0.4166667), wk =   0.0034722
        k(  268) = (   0.1250000   0.2500000   0.4583333), wk =   0.0034722
        k(  269) = (   0.1250000   0.2500000  -0.5000000), wk =   0.0017361
        k(  270) = (   0.1250000   0.2916667   0.2916667), wk =   0.0017361
        k(  271) = (   0.1250000   0.2916667   0.3333333), wk =   0.0034722
        k(  272) = (   0.1250000   0.2916667   0.3750000), wk =   0.0034722
        k(  273) = (   0.1250000   0.2916667   0.4166667), wk =   0.0034722
        k(  274) = (   0.1250000   0.2916667   0.4583333), wk =   0.0034722
        k(  275) = (   0.1250000   0.2916667  -0.5000000), wk =   0.0017361
        k(  276) = (   0.1250000   0.3333333   0.3333333), wk =   0.0017361
        k(  277) = (   0.1250000   0.3333333   0.3750000), wk =   0.0034722
        k(  278) = (   0.1250000   0.3333333   0.4166667), wk =   0.0034722
        k(  279) = (   0.1250000   0.3333333   0.4583333), wk =   0.0034722
        k(  280) = (   0.1250000   0.3333333  -0.5000000), wk =   0.0017361
        k(  281) = (   0.1250000   0.3750000   0.3750000), wk =   0.0017361
        k(  282) = (   0.1250000   0.3750000   0.4166667), wk =   0.0034722
        k(  283) = (   0.1250000   0.3750000   0.4583333), wk =   0.0034722
        k(  284) = (   0.1250000   0.3750000  -0.5000000), wk =   0.0017361
        k(  285) = (   0.1250000   0.4166667   0.4166667), wk =   0.0017361
        k(  286) = (   0.1250000   0.4166667   0.4583333), wk =   0.0034722
        k(  287) = (   0.1250000   0.4166667  -0.5000000), wk =   0.0017361
        k(  288) = (   0.1250000   0.4583333   0.4583333), wk =   0.0017361
        k(  289) = (   0.1250000   0.4583333  -0.5000000), wk =   0.0017361
        k(  290) = (   0.1250000  -0.5000000  -0.5000000), wk =   0.0004340
        k(  291) = (   0.1666667   0.1666667   0.1666667), wk =   0.0005787
        k(  292) = (   0.1666667   0.1666667   0.2083333), wk =   0.0017361
        k(  293) = (   0.1666667   0.1666667   0.2500000), wk =   0.0017361
        k(  294) = (   0.1666667   0.1666667   0.2916667), wk =   0.0017361
        k(  295) = (   0.1666667   0.1666667   0.3333333), wk =   0.0017361
        k(  296) = (   0.1666667   0.1666667   0.3750000), wk =   0.0017361
        k(  297) = (   0.1666667   0.1666667   0.4166667), wk =   0.0017361
        k(  298) = (   0.1666667   0.1666667   0.4583333), wk =   0.0017361
        k(  299) = (   0.1666667   0.1666667  -0.5000000), wk =   0.0008681
        k(  300) = (   0.1666667   0.2083333   0.2083333), wk =   0.0017361
        k(  301) = (   0.1666667   0.2083333   0.2500000), wk =   0.0034722
        k(  302) = (   0.1666667   0.2083333   0.2916667), wk =   0.0034722
        k(  303) = (   0.1666667   0.2083333   0.3333333), wk =   0.0034722
        k(  304) = (   0.1666667   0.2083333   0.3750000), wk =   0.0034722
        k(  305) = (   0.1666667   0.2083333   0.4166667), wk =   0.0034722
        k(  306) = (   0.1666667   0.2083333   0.4583333), wk =   0.0034722
        k(  307) = (   0.1666667   0.2083333  -0.5000000), wk =   0.0017361
        k(  308) = (   0.1666667   0.2500000   0.2500000), wk =   0.0017361
        k(  309) = (   0.1666667   0.2500000   0.2916667), wk =   0.0034722
        k(  310) = (   0.1666667   0.2500000   0.3333333), wk =   0.0034722
        k(  311) = (   0.1666667   0.2500000   0.3750000), wk =   0.0034722
        k(  312) = (   0.1666667   0.2500000   0.4166667), wk =   0.0034722
        k(  313) = (   0.1666667   0.2500000   0.4583333), wk =   0.0034722
        k(  314) = (   0.1666667   0.2500000  -0.5000000), wk =   0.0017361
        k(  315) = (   0.1666667   0.2916667   0.2916667), wk =   0.0017361
        k(  316) = (   0.1666667   0.2916667   0.3333333), wk =   0.0034722
        k(  317) = (   0.1666667   0.2916667   0.3750000), wk =   0.0034722
        k(  318) = (   0.1666667   0.2916667   0.4166667), wk =   0.0034722
        k(  319) = (   0.1666667   0.2916667   0.4583333), wk =   0.0034722
        k(  320) = (   0.1666667   0.2916667  -0.5000000), wk =   0.0017361
        k(  321) = (   0.1666667   0.3333333   0.3333333), wk =   0.0017361
        k(  322) = (   0.1666667   0.3333333   0.3750000), wk =   0.0034722
        k(  323) = (   0.1666667   0.3333333   0.4166667), wk =   0.0034722
        k(  324) = (   0.1666667   0.3333333   0.4583333), wk =   0.0034722
        k(  325) = (   0.1666667   0.3333333  -0.5000000), wk =   0.0017361
        k(  326) = (   0.1666667   0.3750000   0.3750000), wk =   0.0017361
        k(  327) = (   0.1666667   0.3750000   0.4166667), wk =   0.0034722
        k(  328) = (   0.1666667   0.3750000   0.4583333), wk =   0.0034722
        k(  329) = (   0.1666667   0.3750000  -0.5000000), wk =   0.0017361
        k(  330) = (   0.1666667   0.4166667   0.4166667), wk =   0.0017361
        k(  331) = (   0.1666667   0.4166667   0.4583333), wk =   0.0034722
        k(  332) = (   0.1666667   0.4166667  -0.5000000), wk =   0.0017361
        k(  333) = (   0.1666667   0.4583333   0.4583333), wk =   0.0017361
        k(  334) = (   0.1666667   0.4583333  -0.5000000), wk =   0.0017361
        k(  335) = (   0.1666667  -0.5000000  -0.5000000), wk =   0.0004340
        k(  336) = (   0.2083333   0.2083333   0.2083333), wk =   0.0005787
        k(  337) = (   0.2083333   0.2083333   0.2500000), wk =   0.0017361
        k(  338) = (   0.2083333   0.2083333   0.2916667), wk =   0.0017361
        k(  339) = (   0.2083333   0.2083333   0.3333333), wk =   0.0017361
        k(  340) = (   0.2083333   0.2083333   0.3750000), wk =   0.0017361
        k(  341) = (   0.2083333   0.2083333   0.4166667), wk =   0.0017361
        k(  342) = (   0.2083333   0.2083333   0.4583333), wk =   0.0017361
        k(  343) = (   0.2083333   0.2083333  -0.5000000), wk =   0.0008681
        k(  344) = (   0.2083333   0.2500000   0.2500000), wk =   0.0017361
        k(  345) = (   0.2083333   0.2500000   0.2916667), wk =   0.0034722
        k(  346) = (   0.2083333   0.2500000   0.3333333), wk =   0.0034722
        k(  347) = (   0.2083333   0.2500000   0.3750000), wk =   0.0034722
        k(  348) = (   0.2083333   0.2500000   0.4166667), wk =   0.0034722
        k(  349) = (   0.2083333   0.2500000   0.4583333), wk =   0.0034722
        k(  350) = (   0.2083333   0.2500000  -0.5000000), wk =   0.0017361
        k(  351) = (   0.2083333   0.2916667   0.2916667), wk =   0.0017361
        k(  352) = (   0.2083333   0.2916667   0.3333333), wk =   0.0034722
        k(  353) = (   0.2083333   0.2916667   0.3750000), wk =   0.0034722
        k(  354) = (   0.2083333   0.2916667   0.4166667), wk =   0.0034722
        k(  355) = (   0.2083333   0.2916667   0.4583333), wk =   0.0034722
        k(  356) = (   0.2083333   0.2916667  -0.5000000), wk =   0.0017361
        k(  357) = (   0.2083333   0.3333333   0.3333333), wk =   0.0017361
        k(  358) = (   0.2083333   0.3333333   0.3750000), wk =   0.0034722
        k(  359) = (   0.2083333   0.3333333   0.4166667), wk =   0.0034722
        k(  360) = (   0.2083333   0.3333333   0.4583333), wk =   0.0034722
        k(  361) = (   0.2083333   0.3333333  -0.5000000), wk =   0.0017361
        k(  362) = (   0.2083333   0.3750000   0.3750000), wk =   0.0017361
        k(  363) = (   0.2083333   0.3750000   0.4166667), wk =   0.0034722
        k(  364) = (   0.2083333   0.3750000   0.4583333), wk =   0.0034722
        k(  365) = (   0.2083333   0.3750000  -0.5000000), wk =   0.0017361
        k(  366) = (   0.2083333   0.4166667   0.4166667), wk =   0.0017361
        k(  367) = (   0.2083333   0.4166667   0.4583333), wk =   0.0034722
        k(  368) = (   0.2083333   0.4166667  -0.5000000), wk =   0.0017361
        k(  369) = (   0.2083333   0.4583333   0.4583333), wk =   0.0017361
        k(  370) = (   0.2083333   0.4583333  -0.5000000), wk =   0.0017361
        k(  371) = (   0.2083333  -0.5000000  -0.5000000), wk =   0.0004340
        k(  372) = (   0.2500000   0.2500000   0.2500000), wk =   0.0005787
        k(  373) = (   0.2500000   0.2500000   0.2916667), wk =   0.0017361
        k(  374) = (   0.2500000   0.2500000   0.3333333), wk =   0.0017361
        k(  375) = (   0.2500000   0.2500000   0.3750000), wk =   0.0017361
        k(  376) = (   0.2500000   0.2500000   0.4166667), wk =   0.0017361
        k(  377) = (   0.2500000   0.2500000   0.4583333), wk =   0.0017361
        k(  378) = (   0.2500000   0.2500000  -0.5000000), wk =   0.0008681
        k(  379) = (   0.2500000   0.2916667   0.2916667), wk =   0.0017361
        k(  380) = (   0.2500000   0.2916667   0.3333333), wk =   0.0034722
        k(  381) = (   0.2500000   0.2916667   0.3750000), wk =   0.0034722
        k(  382) = (   0.2500000   0.2916667   0.4166667), wk =   0.0034722
        k(  383) = (   0.2500000   0.2916667   0.4583333), wk =   0.0034722
        k(  384) = (   0.2500000   0.2916667  -0.5000000), wk =   0.0017361
        k(  385) = (   0.2500000   0.3333333   0.3333333), wk =   0.0017361
        k(  386) = (   0.2500000   0.3333333   0.3750000), wk =   0.0034722
        k(  387) = (   0.2500000   0.3333333   0.4166667), wk =   0.0034722
        k(  388) = (   0.2500000   0.3333333   0.4583333), wk =   0.0034722
        k(  389) = (   0.2500000   0.3333333  -0.5000000), wk =   0.0017361
        k(  390) = (   0.2500000   0.3750000   0.3750000), wk =   0.0017361
        k(  391) = (   0.2500000   0.3750000   0.4166667), wk =   0.0034722
        k(  392) = (   0.2500000   0.3750000   0.4583333), wk =   0.0034722
        k(  393) = (   0.2500000   0.3750000  -0.5000000), wk =   0.0017361
        k(  394) = (   0.2500000   0.4166667   0.4166667), wk =   0.0017361
        k(  395) = (   0.2500000   0.4166667   0.4583333), wk =   0.0034722
        k(  396) = (   0.2500000   0.4166667  -0.5000000), wk =   0.0017361
        k(  397) = (   0.2500000   0.4583333   0.4583333), wk =   0.0017361
        k(  398) = (   0.2500000   0.4583333  -0.5000000), wk =   0.0017361
        k(  399) = (   0.2500000  -0.5000000  -0.5000000), wk =   0.0004340
        k(  400) = (   0.2916667   0.2916667   0.2916667), wk =   0.0005787
        k(  401) = (   0.2916667   0.2916667   0.3333333), wk =   0.0017361
        k(  402) = (   0.2916667   0.2916667   0.3750000), wk =   0.0017361
        k(  403) = (   0.2916667   0.2916667   0.4166667), wk =   0.0017361
        k(  404) = (   0.2916667   0.2916667   0.4583333), wk =   0.0017361
        k(  405) = (   0.2916667   0.2916667  -0.5000000), wk =   0.0008681
        k(  406) = (   0.2916667   0.3333333   0.3333333), wk =   0.0017361
        k(  407) = (   0.2916667   0.3333333   0.3750000), wk =   0.0034722
        k(  408) = (   0.2916667   0.3333333   0.4166667), wk =   0.0034722
        k(  409) = (   0.2916667   0.3333333   0.4583333), wk =   0.0034722
        k(  410) = (   0.2916667   0.3333333  -0.5000000), wk =   0.0017361
        k(  411) = (   0.2916667   0.3750000   0.3750000), wk =   0.0017361
        k(  412) = (   0.2916667   0.3750000   0.4166667), wk =   0.0034722
        k(  413) = (   0.2916667   0.3750000   0.4583333), wk =   0.0034722
        k(  414) = (   0.2916667   0.3750000  -0.5000000), wk =   0.0017361
        k(  415) = (   0.2916667   0.4166667   0.4166667), wk =   0.0017361
        k(  416) = (   0.2916667   0.4166667   0.4583333), wk =   0.0034722
        k(  417) = (   0.2916667   0.4166667  -0.5000000), wk =   0.0017361
        k(  418) = (   0.2916667   0.4583333   0.4583333), wk =   0.0017361
        k(  419) = (   0.2916667   0.4583333  -0.5000000), wk =   0.0017361
        k(  420) = (   0.2916667  -0.5000000  -0.5000000), wk =   0.0004340
        k(  421) = (   0.3333333   0.3333333   0.3333333), wk =   0.0005787
        k(  422) = (   0.3333333   0.3333333   0.3750000), wk =   0.0017361
        k(  423) = (   0.3333333   0.3333333   0.4166667), wk =   0.0017361
        k(  424) = (   0.3333333   0.3333333   0.4583333), wk =   0.0017361
        k(  425) = (   0.3333333   0.3333333  -0.5000000), wk =   0.0008681
        k(  426) = (   0.3333333   0.3750000   0.3750000), wk =   0.0017361
        k(  427) = (   0.3333333   0.3750000   0.4166667), wk =   0.0034722
        k(  428) = (   0.3333333   0.3750000   0.4583333), wk =   0.0034722
        k(  429) = (   0.3333333   0.3750000  -0.5000000), wk =   0.0017361
        k(  430) = (   0.3333333   0.4166667   0.4166667), wk =   0.0017361
        k(  431) = (   0.3333333   0.4166667   0.4583333), wk =   0.0034722
        k(  432) = (   0.3333333   0.4166667  -0.5000000), wk =   0.0017361
        k(  433) = (   0.3333333   0.4583333   0.4583333), wk =   0.0017361
        k(  434) = (   0.3333333   0.4583333  -0.5000000), wk =   0.0017361
        k(  435) = (   0.3333333  -0.5000000  -0.5000000), wk =   0.0004340
        k(  436) = (   0.3750000   0.3750000   0.3750000), wk =   0.0005787
        k(  437) = (   0.3750000   0.3750000   0.4166667), wk =   0.0017361
        k(  438) = (   0.3750000   0.3750000   0.4583333), wk =   0.0017361
        k(  439) = (   0.3750000   0.3750000  -0.5000000), wk =   0.0008681
        k(  440) = (   0.3750000   0.4166667   0.4166667), wk =   0.0017361
        k(  441) = (   0.3750000   0.4166667   0.4583333), wk =   0.0034722
        k(  442) = (   0.3750000   0.4166667  -0.5000000), wk =   0.0017361
        k(  443) = (   0.3750000   0.4583333   0.4583333), wk =   0.0017361
        k(  444) = (   0.3750000   0.4583333  -0.5000000), wk =   0.0017361
        k(  445) = (   0.3750000  -0.5000000  -0.5000000), wk =   0.0004340
        k(  446) = (   0.4166667   0.4166667   0.4166667), wk =   0.0005787
        k(  447) = (   0.4166667   0.4166667   0.4583333), wk =   0.0017361
        k(  448) = (   0.4166667   0.4166667  -0.5000000), wk =   0.0008681
        k(  449) = (   0.4166667   0.4583333   0.4583333), wk =   0.0017361
        k(  450) = (   0.4166667   0.4583333  -0.5000000), wk =   0.0017361
        k(  451) = (   0.4166667  -0.5000000  -0.5000000), wk =   0.0004340
        k(  452) = (   0.4583333   0.4583333   0.4583333), wk =   0.0005787
        k(  453) = (   0.4583333   0.4583333  -0.5000000), wk =   0.0008681
        k(  454) = (   0.4583333  -0.5000000  -0.5000000), wk =   0.0004340
        k(  455) = (  -0.5000000  -0.5000000  -0.5000000), wk =   0.0000723

                       cryst. coord.
        k(    1) = (   0.0000000   0.0000000   0.0000000), wk =   0.0000723
        k(    2) = (   0.0000000   0.0000000   0.0416667), wk =   0.0004340
        k(    3) = (   0.0000000   0.0000000   0.0833333), wk =   0.0004340
        k(    4) = (   0.0000000   0.0000000   0.1250000), wk =   0.0004340
        k(    5) = (   0.0000000   0.0000000   0.1666667), wk =   0.0004340
        k(    6) = (   0.0000000   0.0000000   0.2083333), wk =   0.0004340
        k(    7) = (   0.0000000   0.0000000   0.2500000), wk =   0.0004340
        k(    8) = (   0.0000000   0.0000000   0.2916667), wk =   0.0004340
        k(    9) = (   0.0000000   0.0000000   0.3333333), wk =   0.0004340
        k(   10) = (   0.0000000   0.0000000   0.3750000), wk =   0.0004340
        k(   11) = (   0.0000000   0.0000000   0.4166667), wk =   0.0004340
        k(   12) = (   0.0000000   0.0000000   0.4583333), wk =   0.0004340
        k(   13) = (   0.0000000   0.0000000  -0.5000000), wk =   0.0002170
        k(   14) = (   0.0000000   0.0416667   0.0416667), wk =   0.0008681
        k(   15) = (   0.0000000   0.0416667   0.0833333), wk =   0.0017361
        k(   16) = (   0.0000000   0.0416667   0.1250000), wk =   0.0017361
        k(   17) = (   0.0000000   0.0416667   0.1666667), wk =   0.0017361
        k(   18) = (   0.0000000   0.0416667   0.2083333), wk =   0.0017361
        k(   19) = (   0.0000000   0.0416667   0.2500000), wk =   0.0017361
        k(   20) = (   0.0000000   0.0416667   0.2916667), wk =   0.0017361
        k(   21) = (   0.0000000   0.0416667   0.3333333), wk =   0.0017361
        k(   22) = (   0.0000000   0.0416667   0.3750000), wk =   0.0017361
        k(   23) = (   0.0000000   0.0416667   0.4166667), wk =   0.0017361
        k(   24) = (   0.0000000   0.0416667   0.4583333), wk =   0.0017361
        k(   25) = (   0.0000000   0.0416667  -0.5000000), wk =   0.0008681
        k(   26) = (   0.0000000   0.0833333   0.0833333), wk =   0.0008681
        k(   27) = (   0.0000000   0.0833333   0.1250000), wk =   0.0017361
        k(   28) = (   0.0000000   0.0833333   0.1666667), wk =   0.0017361
        k(   29) = (   0.0000000   0.0833333   0.2083333), wk =   0.0017361
        k(   30) = (   0.0000000   0.0833333   0.2500000), wk =   0.0017361
        k(   31) = (   0.0000000   0.0833333   0.2916667), wk =   0.0017361
        k(   32) = (   0.0000000   0.0833333   0.3333333), wk =   0.0017361
        k(   33) = (   0.0000000   0.0833333   0.3750000), wk =   0.0017361
        k(   34) = (   0.0000000   0.0833333   0.4166667), wk =   0.0017361
        k(   35) = (   0.0000000   0.0833333   0.4583333), wk =   0.0017361
        k(   36) = (   0.0000000   0.0833333  -0.5000000), wk =   0.0008681
        k(   37) = (   0.0000000   0.1250000   0.1250000), wk =   0.0008681
        k(   38) = (   0.0000000   0.1250000   0.1666667), wk =   0.0017361
        k(   39) = (   0.0000000   0.1250000   0.2083333), wk =   0.0017361
        k(   40) = (   0.0000000   0.1250000   0.2500000), wk =   0.0017361
        k(   41) = (   0.0000000   0.1250000   0.2916667), wk =   0.0017361
        k(   42) = (   0.0000000   0.1250000   0.3333333), wk =   0.0017361
        k(   43) = (   0.0000000   0.1250000   0.3750000), wk =   0.0017361
        k(   44) = (   0.0000000   0.1250000   0.4166667), wk =   0.0017361
        k(   45) = (   0.0000000   0.1250000   0.4583333), wk =   0.0017361
        k(   46) = (   0.0000000   0.1250000  -0.5000000), wk =   0.0008681
        k(   47) = (   0.0000000   0.1666667   0.1666667), wk =   0.0008681
        k(   48) = (   0.0000000   0.1666667   0.2083333), wk =   0.0017361
        k(   49) = (   0.0000000   0.1666667   0.2500000), wk =   0.0017361
        k(   50) = (   0.0000000   0.1666667   0.2916667), wk =   0.0017361
        k(   51) = (   0.0000000   0.1666667   0.3333333), wk =   0.0017361
        k(   52) = (   0.0000000   0.1666667   0.3750000), wk =   0.0017361
        k(   53) = (   0.0000000   0.1666667   0.4166667), wk =   0.0017361
        k(   54) = (   0.0000000   0.1666667   0.4583333), wk =   0.0017361
        k(   55) = (   0.0000000   0.1666667  -0.5000000), wk =   0.0008681
        k(   56) = (   0.0000000   0.2083333   0.2083333), wk =   0.0008681
        k(   57) = (   0.0000000   0.2083333   0.2500000), wk =   0.0017361
        k(   58) = (   0.0000000   0.2083333   0.2916667), wk =   0.0017361
        k(   59) = (   0.0000000   0.2083333   0.3333333), wk =   0.0017361
        k(   60) = (   0.0000000   0.2083333   0.3750000), wk =   0.0017361
        k(   61) = (   0.0000000   0.2083333   0.4166667), wk =   0.0017361
        k(   62) = (   0.0000000   0.2083333   0.4583333), wk =   0.0017361
        k(   63) = (   0.0000000   0.2083333  -0.5000000), wk =   0.0008681
        k(   64) = (   0.0000000   0.2500000   0.2500000), wk =   0.0008681
        k(   65) = (   0.0000000   0.2500000   0.2916667), wk =   0.0017361
        k(   66) = (   0.0000000   0.2500000   0.3333333), wk =   0.0017361
        k(   67) = (   0.0000000   0.2500000   0.3750000), wk =   0.0017361
        k(   68) = (   0.0000000   0.2500000   0.4166667), wk =   0.0017361
        k(   69) = (   0.0000000   0.2500000   0.4583333), wk =   0.0017361
        k(   70) = (   0.0000000   0.2500000  -0.5000000), wk =   0.0008681
        k(   71) = (   0.0000000   0.2916667   0.2916667), wk =   0.0008681
        k(   72) = (   0.0000000   0.2916667   0.3333333), wk =   0.0017361
        k(   73) = (   0.0000000   0.2916667   0.3750000), wk =   0.0017361
        k(   74) = (   0.0000000   0.2916667   0.4166667), wk =   0.0017361
        k(   75) = (   0.0000000   0.2916667   0.4583333), wk =   0.0017361
        k(   76) = (   0.0000000   0.2916667  -0.5000000), wk =   0.0008681
        k(   77) = (   0.0000000   0.3333333   0.3333333), wk =   0.0008681
        k(   78) = (   0.0000000   0.3333333   0.3750000), wk =   0.0017361
        k(   79) = (   0.0000000   0.3333333   0.4166667), wk =   0.0017361
        k(   80) = (   0.0000000   0.3333333   0.4583333), wk =   0.0017361
        k(   81) = (   0.0000000   0.3333333  -0.5000000), wk =   0.0008681
        k(   82) = (   0.0000000   0.3750000   0.3750000), wk =   0.0008681
        k(   83) = (   0.0000000   0.3750000   0.4166667), wk =   0.0017361
        k(   84) = (   0.0000000   0.3750000   0.4583333), wk =   0.0017361
        k(   85) = (   0.0000000   0.3750000  -0.5000000), wk =   0.0008681
        k(   86) = (   0.0000000   0.4166667   0.4166667), wk =   0.0008681
        k(   87) = (   0.0000000   0.4166667   0.4583333), wk =   0.0017361
        k(   88) = (   0.0000000   0.4166667  -0.5000000), wk =   0.0008681
        k(   89) = (   0.0000000   0.4583333   0.4583333), wk =   0.0008681
        k(   90) = (   0.0000000   0.4583333  -0.5000000), wk =   0.0008681
        k(   91) = (   0.0000000  -0.5000000  -0.5000000), wk =   0.0002170
        k(   92) = (   0.0416667   0.0416667   0.0416667), wk =   0.0005787
        k(   93) = (   0.0416667   0.0416667   0.0833333), wk =   0.0017361
        k(   94) = (   0.0416667   0.0416667   0.1250000), wk =   0.0017361
        k(   95) = (   0.0416667   0.0416667   0.1666667), wk =   0.0017361
        k(   96) = (   0.0416667   0.0416667   0.2083333), wk =   0.0017361
        k(   97) = (   0.0416667   0.0416667   0.2500000), wk =   0.0017361
        k(   98) = (   0.0416667   0.0416667   0.2916667), wk =   0.0017361
        k(   99) = (   0.0416667   0.0416667   0.3333333), wk =   0.0017361
        k(  100) = (   0.0416667   0.0416667   0.3750000), wk =   0.0017361
        k(  101) = (   0.0416667   0.0416667   0.4166667), wk =   0.0017361
        k(  102) = (   0.0416667   0.0416667   0.4583333), wk =   0.0017361
        k(  103) = (   0.0416667   0.0416667  -0.5000000), wk =   0.0008681
        k(  104) = (   0.0416667   0.0833333   0.0833333), wk =   0.0017361
        k(  105) = (   0.0416667   0.0833333   0.1250000), wk =   0.0034722
        k(  106) = (   0.0416667   0.0833333   0.1666667), wk =   0.0034722
        k(  107) = (   0.0416667   0.0833333   0.2083333), wk =   0.0034722
        k(  108) = (   0.0416667   0.0833333   0.2500000), wk =   0.0034722
        k(  109) = (   0.0416667   0.0833333   0.2916667), wk =   0.0034722
        k(  110) = (   0.0416667   0.0833333   0.3333333), wk =   0.0034722
        k(  111) = (   0.0416667   0.0833333   0.3750000), wk =   0.0034722
        k(  112) = (   0.0416667   0.0833333   0.4166667), wk =   0.0034722
        k(  113) = (   0.0416667   0.0833333   0.4583333), wk =   0.0034722
        k(  114) = (   0.0416667   0.0833333  -0.5000000), wk =   0.0017361
        k(  115) = (   0.0416667   0.1250000   0.1250000), wk =   0.0017361
        k(  116) = (   0.0416667   0.1250000   0.1666667), wk =   0.0034722
        k(  117) = (   0.0416667   0.1250000   0.2083333), wk =   0.0034722
        k(  118) = (   0.0416667   0.1250000   0.2500000), wk =   0.0034722
        k(  119) = (   0.0416667   0.1250000   0.2916667), wk =   0.0034722
        k(  120) = (   0.0416667   0.1250000   0.3333333), wk =   0.0034722
        k(  121) = (   0.0416667   0.1250000   0.3750000), wk =   0.0034722
        k(  122) = (   0.0416667   0.1250000   0.4166667), wk =   0.0034722
        k(  123) = (   0.0416667   0.1250000   0.4583333), wk =   0.0034722
        k(  124) = (   0.0416667   0.1250000  -0.5000000), wk =   0.0017361
        k(  125) = (   0.0416667   0.1666667   0.1666667), wk =   0.0017361
        k(  126) = (   0.0416667   0.1666667   0.2083333), wk =   0.0034722
        k(  127) = (   0.0416667   0.1666667   0.2500000), wk =   0.0034722
        k(  128) = (   0.0416667   0.1666667   0.2916667), wk =   0.0034722
        k(  129) = (   0.0416667   0.1666667   0.3333333), wk =   0.0034722
        k(  130) = (   0.0416667   0.1666667   0.3750000), wk =   0.0034722
        k(  131) = (   0.0416667   0.1666667   0.4166667), wk =   0.0034722
        k(  132) = (   0.0416667   0.1666667   0.4583333), wk =   0.0034722
        k(  133) = (   0.0416667   0.1666667  -0.5000000), wk =   0.0017361
        k(  134) = (   0.0416667   0.2083333   0.2083333), wk =   0.0017361
        k(  135) = (   0.0416667   0.2083333   0.2500000), wk =   0.0034722
        k(  136) = (   0.0416667   0.2083333   0.2916667), wk =   0.0034722
        k(  137) = (   0.0416667   0.2083333   0.3333333), wk =   0.0034722
        k(  138) = (   0.0416667   0.2083333   0.3750000), wk =   0.0034722
        k(  139) = (   0.0416667   0.2083333   0.4166667), wk =   0.0034722
        k(  140) = (   0.0416667   0.2083333   0.4583333), wk =   0.0034722
        k(  141) = (   0.0416667   0.2083333  -0.5000000), wk =   0.0017361
        k(  142) = (   0.0416667   0.2500000   0.2500000), wk =   0.0017361
        k(  143) = (   0.0416667   0.2500000   0.2916667), wk =   0.0034722
        k(  144) = (   0.0416667   0.2500000   0.3333333), wk =   0.0034722
        k(  145) = (   0.0416667   0.2500000   0.3750000), wk =   0.0034722
        k(  146) = (   0.0416667   0.2500000   0.4166667), wk =   0.0034722
        k(  147) = (   0.0416667   0.2500000   0.4583333), wk =   0.0034722
        k(  148) = (   0.0416667   0.2500000  -0.5000000), wk =   0.0017361
        k(  149) = (   0.0416667   0.2916667   0.2916667), wk =   0.0017361
        k(  150) = (   0.0416667   0.2916667   0.3333333), wk =   0.0034722
        k(  151) = (   0.0416667   0.2916667   0.3750000), wk =   0.0034722
        k(  152) = (   0.0416667   0.2916667   0.4166667), wk =   0.0034722
        k(  153) = (   0.0416667   0.2916667   0.4583333), wk =   0.0034722
        k(  154) = (   0.0416667   0.2916667  -0.5000000), wk =   0.0017361
        k(  155) = (   0.0416667   0.3333333   0.3333333), wk =   0.0017361
        k(  156) = (   0.0416667   0.3333333   0.3750000), wk =   0.0034722
        k(  157) = (   0.0416667   0.3333333   0.4166667), wk =   0.0034722
        k(  158) = (   0.0416667   0.3333333   0.4583333), wk =   0.0034722
        k(  159) = (   0.0416667   0.3333333  -0.5000000), wk =   0.0017361
        k(  160) = (   0.0416667   0.3750000   0.3750000), wk =   0.0017361
        k(  161) = (   0.0416667   0.3750000   0.4166667), wk =   0.0034722
        k(  162) = (   0.0416667   0.3750000   0.4583333), wk =   0.0034722
        k(  163) = (   0.0416667   0.3750000  -0.5000000), wk =   0.0017361
        k(  164) = (   0.0416667   0.4166667   0.4166667), wk =   0.0017361
        k(  165) = (   0.0416667   0.4166667   0.4583333), wk =   0.0034722
        k(  166) = (   0.0416667   0.4166667  -0.5000000), wk =   0.0017361
        k(  167) = (   0.0416667   0.4583333   0.4583333), wk =   0.0017361
        k(  168) = (   0.0416667   0.4583333  -0.5000000), wk =   0.0017361
        k(  169) = (   0.0416667  -0.5000000  -0.5000000), wk =   0.0004340
        k(  170) = (   0.0833333   0.0833333   0.0833333), wk =   0.0005787
        k(  171) = (   0.0833333   0.0833333   0.1250000), wk =   0.0017361
        k(  172) = (   0.0833333   0.0833333   0.1666667), wk =   0.0017361
        k(  173) = (   0.0833333   0.0833333   0.2083333), wk =   0.0017361
        k(  174) = (   0.0833333   0.0833333   0.2500000), wk =   0.0017361
        k(  175) = (   0.0833333   0.0833333   0.2916667), wk =   0.0017361
        k(  176) = (   0.0833333   0.0833333   0.3333333), wk =   0.0017361
        k(  177) = (   0.0833333   0.0833333   0.3750000), wk =   0.0017361
        k(  178) = (   0.0833333   0.0833333   0.4166667), wk =   0.0017361
        k(  179) = (   0.0833333   0.0833333   0.4583333), wk =   0.0017361
        k(  180) = (   0.0833333   0.0833333  -0.5000000), wk =   0.0008681
        k(  181) = (   0.0833333   0.1250000   0.1250000), wk =   0.0017361
        k(  182) = (   0.0833333   0.1250000   0.1666667), wk =   0.0034722
        k(  183) = (   0.0833333   0.1250000   0.2083333), wk =   0.0034722
        k(  184) = (   0.0833333   0.1250000   0.2500000), wk =   0.0034722
        k(  185) = (   0.0833333   0.1250000   0.2916667), wk =   0.0034722
        k(  186) = (   0.0833333   0.1250000   0.3333333), wk =   0.0034722
        k(  187) = (   0.0833333   0.1250000   0.3750000), wk =   0.0034722
        k(  188) = (   0.0833333   0.1250000   0.4166667), wk =   0.0034722
        k(  189) = (   0.0833333   0.1250000   0.4583333), wk =   0.0034722
        k(  190) = (   0.0833333   0.1250000  -0.5000000), wk =   0.0017361
        k(  191) = (   0.0833333   0.1666667   0.1666667), wk =   0.0017361
        k(  192) = (   0.0833333   0.1666667   0.2083333), wk =   0.0034722
        k(  193) = (   0.0833333   0.1666667   0.2500000), wk =   0.0034722
        k(  194) = (   0.0833333   0.1666667   0.2916667), wk =   0.0034722
        k(  195) = (   0.0833333   0.1666667   0.3333333), wk =   0.0034722
        k(  196) = (   0.0833333   0.1666667   0.3750000), wk =   0.0034722
        k(  197) = (   0.0833333   0.1666667   0.4166667), wk =   0.0034722
        k(  198) = (   0.0833333   0.1666667   0.4583333), wk =   0.0034722
        k(  199) = (   0.0833333   0.1666667  -0.5000000), wk =   0.0017361
        k(  200) = (   0.0833333   0.2083333   0.2083333), wk =   0.0017361
        k(  201) = (   0.0833333   0.2083333   0.2500000), wk =   0.0034722
        k(  202) = (   0.0833333   0.2083333   0.2916667), wk =   0.0034722
        k(  203) = (   0.0833333   0.2083333   0.3333333), wk =   0.0034722
        k(  204) = (   0.0833333   0.2083333   0.3750000), wk =   0.0034722
        k(  205) = (   0.0833333   0.2083333   0.4166667), wk =   0.0034722
        k(  206) = (   0.0833333   0.2083333   0.4583333), wk =   0.0034722
        k(  207) = (   0.0833333   0.2083333  -0.5000000), wk =   0.0017361
        k(  208) = (   0.0833333   0.2500000   0.2500000), wk =   0.0017361
        k(  209) = (   0.0833333   0.2500000   0.2916667), wk =   0.0034722
        k(  210) = (   0.0833333   0.2500000   0.3333333), wk =   0.0034722
        k(  211) = (   0.0833333   0.2500000   0.3750000), wk =   0.0034722
        k(  212) = (   0.0833333   0.2500000   0.4166667), wk =   0.0034722
        k(  213) = (   0.0833333   0.2500000   0.4583333), wk =   0.0034722
        k(  214) = (   0.0833333   0.2500000  -0.5000000), wk =   0.0017361
        k(  215) = (   0.0833333   0.2916667   0.2916667), wk =   0.0017361
        k(  216) = (   0.0833333   0.2916667   0.3333333), wk =   0.0034722
        k(  217) = (   0.0833333   0.2916667   0.3750000), wk =   0.0034722
        k(  218) = (   0.0833333   0.2916667   0.4166667), wk =   0.0034722
        k(  219) = (   0.0833333   0.2916667   0.4583333), wk =   0.0034722
        k(  220) = (   0.0833333   0.2916667  -0.5000000), wk =   0.0017361
        k(  221) = (   0.0833333   0.3333333   0.3333333), wk =   0.0017361
        k(  222) = (   0.0833333   0.3333333   0.3750000), wk =   0.0034722
        k(  223) = (   0.0833333   0.3333333   0.4166667), wk =   0.0034722
        k(  224) = (   0.0833333   0.3333333   0.4583333), wk =   0.0034722
        k(  225) = (   0.0833333   0.3333333  -0.5000000), wk =   0.0017361
        k(  226) = (   0.0833333   0.3750000   0.3750000), wk =   0.0017361
        k(  227) = (   0.0833333   0.3750000   0.4166667), wk =   0.0034722
        k(  228) = (   0.0833333   0.3750000   0.4583333), wk =   0.0034722
        k(  229) = (   0.0833333   0.3750000  -0.5000000), wk =   0.0017361
        k(  230) = (   0.0833333   0.4166667   0.4166667), wk =   0.0017361
        k(  231) = (   0.0833333   0.4166667   0.4583333), wk =   0.0034722
        k(  232) = (   0.0833333   0.4166667  -0.5000000), wk =   0.0017361
        k(  233) = (   0.0833333   0.4583333   0.4583333), wk =   0.0017361
        k(  234) = (   0.0833333   0.4583333  -0.5000000), wk =   0.0017361
        k(  235) = (   0.0833333  -0.5000000  -0.5000000), wk =   0.0004340
        k(  236) = (   0.1250000   0.1250000   0.1250000), wk =   0.0005787
        k(  237) = (   0.1250000   0.1250000   0.1666667), wk =   0.0017361
        k(  238) = (   0.1250000   0.1250000   0.2083333), wk =   0.0017361
        k(  239) = (   0.1250000   0.1250000   0.2500000), wk =   0.0017361
        k(  240) = (   0.1250000   0.1250000   0.2916667), wk =   0.0017361
        k(  241) = (   0.1250000   0.1250000   0.3333333), wk =   0.0017361
        k(  242) = (   0.1250000   0.1250000   0.3750000), wk =   0.0017361
        k(  243) = (   0.1250000   0.1250000   0.4166667), wk =   0.0017361
        k(  244) = (   0.1250000   0.1250000   0.4583333), wk =   0.0017361
        k(  245) = (   0.1250000   0.1250000  -0.5000000), wk =   0.0008681
        k(  246) = (   0.1250000   0.1666667   0.1666667), wk =   0.0017361
        k(  247) = (   0.1250000   0.1666667   0.2083333), wk =   0.0034722
        k(  248) = (   0.1250000   0.1666667   0.2500000), wk =   0.0034722
        k(  249) = (   0.1250000   0.1666667   0.2916667), wk =   0.0034722
        k(  250) = (   0.1250000   0.1666667   0.3333333), wk =   0.0034722
        k(  251) = (   0.1250000   0.1666667   0.3750000), wk =   0.0034722
        k(  252) = (   0.1250000   0.1666667   0.4166667), wk =   0.0034722
        k(  253) = (   0.1250000   0.1666667   0.4583333), wk =   0.0034722
        k(  254) = (   0.1250000   0.1666667  -0.5000000), wk =   0.0017361
        k(  255) = (   0.1250000   0.2083333   0.2083333), wk =   0.0017361
        k(  256) = (   0.1250000   0.2083333   0.2500000), wk =   0.0034722
        k(  257) = (   0.1250000   0.2083333   0.2916667), wk =   0.0034722
        k(  258) = (   0.1250000   0.2083333   0.3333333), wk =   0.0034722
        k(  259) = (   0.1250000   0.2083333   0.3750000), wk =   0.0034722
        k(  260) = (   0.1250000   0.2083333   0.4166667), wk =   0.0034722
        k(  261) = (   0.1250000   0.2083333   0.4583333), wk =   0.0034722
        k(  262) = (   0.1250000   0.2083333  -0.5000000), wk =   0.0017361
        k(  263) = (   0.1250000   0.2500000   0.2500000), wk =   0.0017361
        k(  264) = (   0.1250000   0.2500000   0.2916667), wk =   0.0034722
        k(  265) = (   0.1250000   0.2500000   0.3333333), wk =   0.0034722
        k(  266) = (   0.1250000   0.2500000   0.3750000), wk =   0.0034722
        k(  267) = (   0.1250000   0.2500000   0.4166667), wk =   0.0034722
        k(  268) = (   0.1250000   0.2500000   0.4583333), wk =   0.0034722
        k(  269) = (   0.1250000   0.2500000  -0.5000000), wk =   0.0017361
        k(  270) = (   0.1250000   0.2916667   0.2916667), wk =   0.0017361
        k(  271) = (   0.1250000   0.2916667   0.3333333), wk =   0.0034722
        k(  272) = (   0.1250000   0.2916667   0.3750000), wk =   0.0034722
        k(  273) = (   0.1250000   0.2916667   0.4166667), wk =   0.0034722
        k(  274) = (   0.1250000   0.2916667   0.4583333), wk =   0.0034722
        k(  275) = (   0.1250000   0.2916667  -0.5000000), wk =   0.0017361
        k(  276) = (   0.1250000   0.3333333   0.3333333), wk =   0.0017361
        k(  277) = (   0.1250000   0.3333333   0.3750000), wk =   0.0034722
        k(  278) = (   0.1250000   0.3333333   0.4166667), wk =   0.0034722
        k(  279) = (   0.1250000   0.3333333   0.4583333), wk =   0.0034722
        k(  280) = (   0.1250000   0.3333333  -0.5000000), wk =   0.0017361
[...]
     0.0000   0.0000   0.0000   0.0000

          k = 0.3333 0.4583 0.4583 (  2311 PWs)   bands (ev):

   -67.8445 -67.8434 -34.0955 -34.0896 -33.9857 -33.9641 -33.8887 -33.8802
    15.2396  15.2485  15.6921  15.7146  16.1297  16.1919  19.3261  19.3373
    19.4472  19.4532  23.3776  23.9131

     occupation numbers 
     1.0000   1.0000   1.0000   1.0000   1.0000   1.0000   1.0000   1.0000
     1.0000   1.0000   1.0000   1.0000   1.0000   1.0000   0.0000   0.0000
     0.0000   0.0000   0.0000   0.0000

          k = 0.3333 0.4583-0.5000 (  2304 PWs)   bands (ev):

   -67.8438 -67.8438 -34.0920 -34.0920 -33.9743 -33.9743 -33.8865 -33.8865
    15.2437  15.2438  15.6923  15.6923  16.1866  16.1866  19.3367  19.3367
    19.4571  19.4571  23.7138  23.7138

     occupation numbers 
     1.0000   1.0000   1.0000   1.0000   1.0000   1.0000   1.0000   1.0000
     1.0000   1.0000   1.0000   1.0000   1.0000   1.0000   0.0000   0.0000
     0.0000   0.0000   0.0000   0.0000

          k = 0.3333-0.5000-0.5000 (  2308 PWs)   bands (ev):

   -67.8438 -67.8437 -34.0911 -34.0911 -33.9734 -33.9734 -33.8891 -33.8891
    15.2436  15.2436  15.6808  15.6808  16.2126  16.2126  19.3426  19.3426
    19.4632  19.4632  23.8282  23.8282

     occupation numbers 
     1.0000   1.0000   1.0000   1.0000   1.0000   1.0000   1.0000   1.0000
     1.0000   1.0000   1.0000   1.0000   1.0000   1.0000   0.0000   0.0000
     0.0000   0.0000   0.0000   0.0000

          k = 0.3750 0.3750 0.3750 (  2314 PWs)   bands (ev):

   -67.8483 -67.8411 -34.1052 -34.0554 -34.0554 -33.9073 -33.9073 -33.8573
    15.1695  15.3609  15.7528  15.7528  15.9482  15.9482  19.3135  19.3135
    19.3631  19.3631  22.2137  25.2084

     occupation numbers 
     1.0000   1.0000   1.0000   1.0000   1.0000   1.0000   1.0000   1.0000
     1.0000   1.0000   1.0000   1.0000   1.0000   1.0000   0.0000   0.0000
     0.0000   0.0000   0.0000   0.0000

          k = 0.3750 0.3750 0.4167 (  2309 PWs)   bands (ev):

   -67.8467 -67.8419 -34.0999 -34.0675 -34.0311 -33.9309 -33.9009 -33.8659
    15.3074  15.3524  15.7355  15.7732  15.8633  16.0051  19.3151  19.3540
    19.3741  19.4071  22.6183  24.6497

     occupation numbers 
     1.0000   1.0000   1.0000   1.0000   1.0000   1.0000   1.0000   1.0000
     1.0000   1.0000   1.0000   1.0000   1.0000   1.0000   0.0000   0.0000
     0.0000   0.0000   0.0000   0.0000

          k = 0.3750 0.3750 0.4583 (  2307 PWs)   bands (ev):

   -67.8453 -67.8428 -34.0938 -34.0778 -34.0060 -33.9555 -33.8931 -33.8751
    15.3418  15.3425  15.7362  15.7993  15.8745  16.0185  19.3223  19.3434
    19.4157  19.4324  23.0573  24.0778

     occupation numbers 
     1.0000   1.0000   1.0000   1.0000   1.0000   1.0000   1.0000   1.0000
     1.0000   1.0000   1.0000   1.0000   1.0000   1.0000   0.0000   0.0000
     0.0000   0.0000   0.0000   0.0000

          k = 0.3750 0.3750-0.5000 (  2308 PWs)   bands (ev):

   -67.8440 -67.8440 -34.0866 -34.0865 -33.9807 -33.9807 -33.8843 -33.8843
    15.3411  15.3411  15.7570  15.7570  15.9722  15.9722  19.3324  19.3324
    19.4356  19.4356  23.5425  23.5425

     occupation numbers 
     1.0000   1.0000   1.0000   1.0000   1.0000   1.0000   1.0000   1.0000
     1.0000   1.0000   1.0000   1.0000   1.0000   1.0000   0.0000   0.0000
     0.0000   0.0000   0.0000   0.0000

          k = 0.3750 0.4167 0.4167 (  2313 PWs)   bands (ev):

   -67.8455 -67.8423 -34.0920 -34.0617 -34.0249 -33.9391 -33.9100 -33.8768
    15.3738  15.4274  15.7026  15.7946  15.8332  15.9986  19.3498  19.3778
    19.3991  19.4227  23.0459  24.8266

     occupation numbers 
     1.0000   1.0000   1.0000   1.0000   1.0000   1.0000   1.0000   1.0000
     1.0000   1.0000   1.0000   1.0000   1.0000   1.0000   0.0000   0.0000
     0.0000   0.0000   0.0000   0.0000

          k = 0.3750 0.4167 0.4583 (  2309 PWs)   bands (ev):

   -67.8445 -67.8428 -34.0841 -34.0678 -34.0050 -33.9588 -33.9063 -33.8877
    15.3873  15.4331  15.7014  15.7729  15.8930  16.0114  19.3627  19.3776
    19.4310  19.4429  23.4982  24.4679

     occupation numbers 
     1.0000   1.0000   1.0000   1.0000   1.0000   1.0000   1.0000   1.0000
     1.0000   1.0000   1.0000   1.0000   1.0000   1.0000   0.0000   0.0000
     0.0000   0.0000   0.0000   0.0000

          k = 0.3750 0.4167-0.5000 (  2306 PWs)   bands (ev):

   -67.8436 -67.8436 -34.0759 -34.0759 -33.9818 -33.9818 -33.8979 -33.8979
    15.4076  15.4077  15.7266  15.7266  15.9780  15.9780  19.3713  19.3713
    19.4471  19.4471  23.9791  23.9791

     occupation numbers 
     1.0000   1.0000   1.0000   1.0000   1.0000   1.0000   1.0000   1.0000
     1.0000   1.0000   1.0000   1.0000   1.0000   1.0000   0.0000   0.0000
     0.0000   0.0000   0.0000   0.0000

          k = 0.3750 0.4583 0.4583 (  2307 PWs)   bands (ev):

   -67.8438 -67.8430 -34.0758 -34.0656 -33.9953 -33.9671 -33.9118 -33.8993
    15.4125  15.4506  15.6739  15.7213  15.9704  16.0350  19.3821  19.3900
    19.4508  19.4568  23.9384  24.5909

     occupation numbers 
     1.0000   1.0000   1.0000   1.0000   1.0000   1.0000   1.0000   1.0000
     1.0000   1.0000   1.0000   1.0000   1.0000   1.0000   0.0000   0.0000
     0.0000   0.0000   0.0000   0.0000

          k = 0.3750 0.4583-0.5000 (  2310 PWs)   bands (ev):

   -67.8433 -67.8433 -34.0692 -34.0692 -33.9808 -33.9808 -33.9083 -33.9083
    15.4348  15.4348  15.6829  15.6829  16.0259  16.0259  19.3899  19.3899
    19.4613  19.4613  24.3464  24.3464

     occupation numbers 
     1.0000   1.0000   1.0000   1.0000   1.0000   1.0000   1.0000   1.0000
     1.0000   1.0000   1.0000   1.0000   1.0000   1.0000   0.0000   0.0000
     0.0000   0.0000   0.0000   0.0000

          k = 0.3750-0.5000-0.5000 (  2308 PWs)   bands (ev):

   -67.8433 -67.8432 -34.0669 -34.0669 -33.9799 -33.9799 -33.9124 -33.9124
    15.4425  15.4425  15.6646  15.6646  16.0482  16.0482  19.3947  19.3947
    19.4679  19.4679  24.5110  24.5110

     occupation numbers 
     1.0000   1.0000   1.0000   1.0000   1.0000   1.0000   1.0000   1.0000
     1.0000   1.0000   1.0000   1.0000   1.0000   1.0000   0.0000   0.0000
     0.0000   0.0000   0.0000   0.0000

          k = 0.4167 0.4167 0.4167 (  2314 PWs)   bands (ev):

   -67.8446 -67.8424 -34.0805 -34.0368 -34.0368 -33.9342 -33.9342 -33.8903
    15.4265  15.6166  15.6953  15.6953  15.8877  15.8877  19.4025  19.4025
    19.4208  19.4208  23.5114  25.5174

     occupation numbers 
     1.0000   1.0000   1.0000   1.0000   1.0000   1.0000   1.0000   1.0000
     1.0000   1.0000   1.0000   1.0000   1.0000   1.0000   0.0000   0.0000
     0.0000   0.0000   0.0000   0.0000

          k = 0.4167 0.4167 0.4583 (  2306 PWs)   bands (ev):

   -67.8438 -67.8427 -34.0695 -34.0480 -34.0111 -33.9594 -33.9263 -33.9036
    15.4651  15.5756  15.7079  15.8011  15.8025  15.9166  19.4075  19.4174
    19.4382  19.4473  23.9966  25.0311

     occupation numbers 
     1.0000   1.0000   1.0000   1.0000   1.0000   1.0000   1.0000   1.0000
     1.0000   1.0000   1.0000   1.0000   1.0000   1.0000   0.0000   0.0000
     0.0000   0.0000   0.0000   0.0000

          k = 0.4167 0.4167-0.5000 (  2308 PWs)   bands (ev):

   -67.8432 -67.8432 -34.0588 -34.0588 -33.9852 -33.9852 -33.9159 -33.9159
    15.5115  15.5115  15.7430  15.7430  15.8909  15.8909  19.4128  19.4128
    19.4536  19.4536  24.5068  24.5068

     occupation numbers 
     1.0000   1.0000   1.0000   1.0000   1.0000   1.0000   1.0000   1.0000
     1.0000   1.0000   1.0000   1.0000   1.0000   1.0000   0.0000   0.0000
     0.0000   0.0000   0.0000   0.0000

          k = 0.4167 0.4583 0.4583 (  2296 PWs)   bands (ev):

   -67.8433 -67.8427 -34.0566 -34.0404 -34.0047 -33.9667 -33.9363 -33.9185
    15.5168  15.6184  15.6732  15.7627  15.8442  15.9071  19.4274  19.4326
    19.4544  19.4591  24.4969  25.2939

     occupation numbers 
     1.0000   1.0000   1.0000   1.0000   1.0000   1.0000   1.0000   1.0000
     1.0000   1.0000   1.0000   1.0000   1.0000   1.0000   0.0000   0.0000
     0.0000   0.0000   0.0000   0.0000

          k = 0.4167 0.4583-0.5000 (  2300 PWs)   bands (ev):

   -67.8430 -67.8429 -34.0462 -34.0462 -33.9856 -33.9856 -33.9307 -33.9307
    15.5691  15.5691  15.7046  15.7046  15.8975  15.8975  19.4328  19.4328
    19.4649  19.4649  24.9789  24.9789

     occupation numbers 
     1.0000   1.0000   1.0000   1.0000   1.0000   1.0000   1.0000   1.0000
     1.0000   1.0000   1.0000   1.0000   1.0000   1.0000   0.0000   0.0000
     0.0000   0.0000   0.0000   0.0000

          k = 0.4167-0.5000-0.5000 (  2296 PWs)   bands (ev):

   -67.8429 -67.8429 -34.0416 -34.0416 -33.9848 -33.9848 -33.9370 -33.9370
    15.6001  15.6002  15.6662  15.6662  15.9145  15.9145  19.4372  19.4372
    19.4716  19.4716  25.2186  25.2186

     occupation numbers 
     1.0000   1.0000   1.0000   1.0000   1.0000   1.0000   1.0000   1.0000
     1.0000   1.0000   1.0000   1.0000   1.0000   1.0000   0.0000   0.0000
     0.0000   0.0000   0.0000   0.0000

          k = 0.4583 0.4583 0.4583 (  2305 PWs)   bands (ev):

   -67.8429 -67.8426 -34.0396 -34.0144 -34.0144 -33.9619 -33.9619 -33.9366
    15.5808  15.6935  15.6935  15.7846  15.8083  15.8083  19.4575  19.4575
    19.4600  19.4600  25.0494  26.0204

     occupation numbers 
     1.0000   1.0000   1.0000   1.0000   1.0000   1.0000   1.0000   1.0000
     1.0000   1.0000   1.0000   1.0000   1.0000   1.0000   0.0000   0.0000
     0.0000   0.0000   0.0000   0.0000

          k = 0.4583 0.4583-0.5000 (  2300 PWs)   bands (ev):

   -67.8427 -67.8427 -34.0255 -34.0255 -33.9880 -33.9880 -33.9516 -33.9516
    15.6398  15.6398  15.7377  15.7377  15.8158  15.8158  19.4594  19.4594
    19.4687  19.4687  25.5809  25.5809

     occupation numbers 
     1.0000   1.0000   1.0000   1.0000   1.0000   1.0000   1.0000   1.0000
     1.0000   1.0000   1.0000   1.0000   1.0000   1.0000   0.0000   0.0000
     0.0000   0.0000   0.0000   0.0000

          k = 0.4583-0.5000-0.5000 (  2300 PWs)   bands (ev):

   -67.8426 -67.8426 -34.0154 -34.0154 -33.9879 -33.9879 -33.9627 -33.9627
    15.6892  15.6892  15.7015  15.7015  15.8110  15.8110  19.4649  19.4649
    19.4738  19.4738  25.9491  25.9491

     occupation numbers 
     1.0000   1.0000   1.0000   1.0000   1.0000   1.0000   1.0000   1.0000
     1.0000   1.0000   1.0000   1.0000   1.0000   1.0000   0.0000   0.0000
     0.0000   0.0000   0.0000   0.0000

          k =-0.5000-0.5000-0.5000 (  2320 PWs)   bands (ev):

   -67.8425 -67.8425 -33.9890 -33.9890 -33.9890 -33.9890 -33.9890 -33.9890
    15.7365  15.7365  15.7365  15.7365  15.7365  15.7365  19.4746  19.4746
    19.4746  19.4746  26.7006  26.7006

     occupation numbers 
     1.0000   1.0000   1.0000   1.0000   1.0000   1.0000   1.0000   1.0000
     1.0000   1.0000   1.0000   1.0000   1.0000   1.0000   0.0000   0.0000
     0.0000   0.0000   0.0000   0.0000

     the Fermi energy is    17.4469 ev

!    total energy              =    -658.53883131 Ry
     total all-electron energy =     -5091.131897 Ry
     estimated scf accuracy    <          3.0E-09 Ry
     smearing contrib. (-TS)   =       0.00007276 Ry
     internal energy E=F+TS    =    -658.53890407 Ry

     The total energy is F=E-TS. E is the sum of the following terms:
     one-electron contribution =    -226.16316593 Ry
     hartree contribution      =     132.46641304 Ry
     xc contribution           =     -55.47302738 Ry
     ewald contribution        =    -343.78483881 Ry
     one-center paw contrib.   =    -165.58428499 Ry
      -> PAW hartree energy AE =     182.92208964 Ry
      -> PAW hartree energy PS =    -181.62445019 Ry
      -> PAW xc energy AE      =    -110.15600982 Ry
      -> PAW xc energy PS      =      26.06622873 Ry
      -> total E_H with PAW    =     133.76405249 Ry
      -> total E_XC with PAW   =    -139.56280847 Ry

     total magnetization       =     4.44 Bohr mag/cell
     absolute magnetization    =     4.69 Bohr mag/cell

     convergence has been achieved in  22 iterations

     negative rho (up, down):  0.000E+00 9.814E-05

     Forces acting on atoms (cartesian axes, Ry/au):

     atom    1 type  1   force =     0.00000000    0.00000000    0.00000000
     atom    2 type  1   force =     0.00000000    0.00000000    0.00000000
     The non-local contrib.  to forces
     atom    1 type  1   force =     0.00000000    0.00000000    0.00000000
     atom    2 type  1   force =     0.00000000    0.00000000    0.00000000
     The ionic contribution  to forces
     atom    1 type  1   force =    -0.00000000   -0.00000000   -0.00000000
     atom    2 type  1   force =     0.00000000    0.00000000    0.00000000
     The local contribution  to forces
     atom    1 type  1   force =     0.00000000    0.00000000    0.00000000
     atom    2 type  1   force =     0.00000000    0.00000000    0.00000000
     The core correction contribution to forces
     atom    1 type  1   force =     0.00000000    0.00000000    0.00000000
     atom    2 type  1   force =    -0.00000000   -0.00000000   -0.00000000
     The Hubbard contrib.    to forces
     atom    1 type  1   force =     0.00000000    0.00000000    0.00000000
     atom    2 type  1   force =     0.00000000    0.00000000    0.00000000
     The SCF correction term to forces
     atom    1 type  1   force =     0.00000000   -0.00000000   -0.00000000
     atom    2 type  1   force =     0.00000000    0.00000000    0.00000000

     Total force =     0.000000     Total SCF correction =     0.000000


     Computing stress (Cartesian axis) and pressure


     negative rho (up, down):  0.000E+00 9.814E-05
          total   stress  (Ry/bohr**3)                   (kbar)     P=      -72.95
  -0.00049587   0.00000000   0.00000000          -72.95        0.00        0.00
   0.00000000  -0.00049587   0.00000000            0.00      -72.95        0.00
   0.00000000   0.00000000  -0.00049587            0.00        0.00      -72.95

     kinetic stress (kbar)  95423.69      0.00      0.00
                                0.00  95423.69      0.00
                                0.00      0.00  95423.69

     local   stress (kbar)  12108.11      0.00     -0.00
                                0.00  12108.11     -0.00
                               -0.00     -0.00  12108.11

     nonloc. stress (kbar) -26162.72      0.00      0.00
                                0.00 -26162.72      0.00
                                0.00      0.00 -26162.72

     hartree stress (kbar)  40797.42      0.00      0.00
                                0.00  40797.42      0.00
                                0.00      0.00  40797.42

     exc-cor stress (kbar) -13739.69     -0.00      0.00
                               -0.00 -13739.69      0.00
                                0.00      0.00 -13739.69

     corecor stress (kbar)  -2619.82      0.00      0.00
                                0.00  -2619.82     -0.00
                                0.00     -0.00  -2619.82

     ewald   stress (kbar)-105879.93     -0.00     -0.00
                               -0.00-105879.93      0.00
                               -0.00      0.00-105879.93

     hubbard stress (kbar)      0.00      0.00      0.00
                                0.00      0.00      0.00
                                0.00      0.00      0.00

     DFT-D   stress (kbar)      0.00      0.00      0.00
                                0.00      0.00      0.00
                                0.00      0.00      0.00

     XDM     stress (kbar)      0.00      0.00      0.00
                                0.00      0.00      0.00
                                0.00      0.00      0.00

     dft-nl  stress (kbar)      0.00      0.00      0.00
                                0.00      0.00      0.00
                                0.00      0.00      0.00

     TS-vdW  stress (kbar)      0.00      0.00      0.00
                                0.00      0.00      0.00
                                0.00      0.00      0.00

     MDB     stress (kbar)      0.00      0.00      0.00
                                0.00      0.00      0.00
                                0.00      0.00      0.00

     3D-RISM stress (kbar)      0.00      0.00      0.00
                                0.00      0.00      0.00
                                0.00      0.00      0.00

     Message from routine punch:
     Nothing written, as per user request (disk_io='none')

     init_run     :      3.07s CPU      3.32s WALL (       1 calls)
     electrons    :    142.82s CPU    153.25s WALL (       1 calls)
     forces       :      0.50s CPU      0.53s WALL (       1 calls)
     stress       :      4.32s CPU      4.39s WALL (       1 calls)

     Called by init_run:
     wfcinit      :      2.18s CPU      2.37s WALL (       1 calls)
     wfcinit:atom :      0.04s CPU      0.04s WALL (     910 calls)
     wfcinit:wfcr :      1.89s CPU      2.07s WALL (     910 calls)
     potinit      :      0.35s CPU      0.37s WALL (       1 calls)
     hinit0       :      0.42s CPU      0.43s WALL (       1 calls)

     Called by electrons:
     c_bands      :    117.79s CPU    126.25s WALL (      22 calls)
     sum_band     :     21.48s CPU     23.30s WALL (      22 calls)
     v_of_rho     :      0.73s CPU      0.77s WALL (      23 calls)
     v_h          :      0.01s CPU      0.02s WALL (      23 calls)
     v_xc         :      0.78s CPU      0.81s WALL (      25 calls)
     newd         :      0.78s CPU      0.81s WALL (      23 calls)
     PAW_pot      :      2.08s CPU      2.17s WALL (      23 calls)
     mix_rho      :      0.04s CPU      0.05s WALL (      22 calls)

     Called by c_bands:
     init_us_2    :      2.39s CPU      2.60s WALL (   42770 calls)
     cegterg      :    112.57s CPU    120.66s WALL (   20020 calls)

     Called by sum_band:
     sum_band:wei :      0.29s CPU      0.29s WALL (      22 calls)
     sum_band:loo :     19.64s CPU     21.41s WALL (      22 calls)
     sum_band:buf :      0.45s CPU      0.49s WALL (   20020 calls)
     sum_band:ini :      1.08s CPU      1.18s WALL (   20020 calls)
     sum_band:cal :      1.00s CPU      1.09s WALL (   20020 calls)
     sum_band:bec :      0.13s CPU      0.14s WALL (   20020 calls)
     addusdens    :      1.49s CPU      1.53s WALL (      22 calls)
                                        0.00s GPU  (      22 calls)
     addusd:skk   :      0.00s CPU      0.00s WALL (      22 calls)
                                        0.00s GPU  (      22 calls)

     Called by *egterg:
     cdiaghg      :     16.25s CPU     17.26s WALL (   62389 calls)
     cegterg:over :      3.11s CPU      3.36s WALL (   42369 calls)
     cegterg:upda :      1.44s CPU      1.54s WALL (   42369 calls)
     cegterg:last :      2.52s CPU      2.64s WALL (   32693 calls)
     h_psi        :     85.94s CPU     92.40s WALL (   63299 calls)
     s_psi        :      1.91s CPU      2.08s WALL (   63299 calls)
     g_psi        :      0.38s CPU      0.40s WALL (   42369 calls)

     Called by h_psi:
     h_psi:calbec :      2.82s CPU      3.03s WALL (   63299 calls)
     vloc_psi     :     80.62s CPU     86.68s WALL (   63299 calls)
     add_vuspsi   :      1.95s CPU      2.11s WALL (   63299 calls)

     General routines
     calbec       :      3.97s CPU      4.30s WALL (   87869 calls)
     fft          :      0.49s CPU      0.53s WALL (     613 calls)
     ffts         :      0.22s CPU      0.22s WALL (      90 calls)
     fftw         :     75.45s CPU     81.09s WALL ( 2290418 calls)
     interpolate  :      0.23s CPU      0.24s WALL (      46 calls)

     Parallel routines

     PAW routines
     PAW_pot      :      2.08s CPU      2.17s WALL (      23 calls)
     PAW_symme    :      0.02s CPU      0.02s WALL (      45 calls)

     PWSCF        :    150.80s CPU    161.68s WALL


   This run was terminated on:  11:20: 3  24May2025            

=------------------------------------------------------------------------------=
   JOB DONE.
=------------------------------------------------------------------------------=
