
     Program PWSCF v.7.3.1 starts on 24May2025 at  0:26: 4 

     This program is part of the open-source Quantum ESPRESSO suite
     for quantum simulation of materials; please cite
         "P. Giannozzi et al., J. Phys.:Condens. Matter 21 395502 (2009);
         "P. Giannozzi et al., J. Phys.:Condens. Matter 29 465901 (2017);
         "P. Giannozzi et al., J. Chem. Phys. 152 154105 (2020);
          URL http://www.quantum-espresso.org", 
     in publications or presentations arising from this work. More details at
     http://www.quantum-espresso.org/quote

     Parallel version (MPI & OpenMP), running on     128 processor cores
     Number of MPI processes:               128
     Threads/MPI process:                     1

     MPI processes distributed on     1 nodes
     393464 MiB available memory on the printing compute node when the environment starts

     Waiting for input...
     Reading input from standard input

     Current dimensions of program PWSCF are:
     Max number of different atomic species (ntypx) = 10
     Max number of k-points (npk) =  40000
     Max angular momentum in pseudopotentials (lmaxx) =  4
     file Fe.pbe-spn-kjpaw_psl.1.0.0.UPF: wavefunction(s)  3P 3D renormalized
     Found identity + (  0.1250  0.1250  0.1250) symmetry
     This is a supercell, fractional translations are disabled
     Message from routine setup:
     using ibrav=0 with symmetry is DISCOURAGED, use correct ibrav instead

     K-points division:     npool     =       4
     R & G space division:  proc/nbgrp/npool/nimage =      32
     Subspace diagonalization in iterative solution of the eigenvalue problem:
     one sub-group per band group will be used
     ELPA distributed-memory algorithm (size of sub-group:  5*  5 procs)


     Parallelization info
     --------------------
     sticks:   dense  smooth     PW     G-vecs:    dense   smooth      PW
     Min        1262     421    110               190864    36715    4958
     Max        1263     422    111               190869    36721    4963
     Sum       40413   13477   3545              6107759  1174959  158715

     Using Slab Decomposition



     bravais-lattice index     =            0
     lattice parameter (alat)  =      21.6797  a.u.
     unit-cell volume          =   10189.6541 (a.u.)^3
     number of atoms/cell      =          128
     number of atomic types    =            1
     number of electrons       =      2048.00
     number of Kohn-Sham states=         1229
     kinetic-energy cutoff     =      90.0000  Ry
     charge density cutoff     =    1080.0000  Ry
     scf convergence threshold =      1.0E-07
     mixing beta               =       0.2000
     number of iterations used =            8  plain     mixing
     Exchange-correlation= SLA  PW   PBX  PBC
                           (   1   4   3   4   0   0   0)

     celldm(1)=  21.679694  celldm(2)=   0.000000  celldm(3)=   0.000000
     celldm(4)=   0.000000  celldm(5)=   0.000000  celldm(6)=   0.000000

     crystal axes: (cart. coord. in units of alat)
               a(1) = (   1.000000   0.000000   0.000000 )  
               a(2) = (   0.000000   1.000000   0.000000 )  
               a(3) = (   0.000000   0.000000   1.000000 )  

     reciprocal axes: (cart. coord. in units 2 pi/alat)
               b(1) = (  1.000000  0.000000  0.000000 )  
               b(2) = (  0.000000  1.000000  0.000000 )  
               b(3) = (  0.000000  0.000000  1.000000 )  


     PseudoPot. # 1 for Fe read from file:
     ./pseudo/Fe.pbe-spn-kjpaw_psl.1.0.0.UPF
     MD5 check sum: fc81f059e5c5069939230b1155715ae8
     Pseudo is Projector augmented-wave + core cor, Zval = 16.0
     Generated using &quot;atomic&quot; code by A. Dal Corso  v.6.3
     Shape of augmentation charge: PSQ
     Using radial grid of 1191 points,  6 beta functions with: 
                l(1) =   0
                l(2) =   0
                l(3) =   1
                l(4) =   1
                l(5) =   2
                l(6) =   2
     Q(r) pseudized with 0 coefficients 


     atomic species   valence    mass     pseudopotential
     Fe               16.00    55.84500     Fe( 1.00)

     Starting magnetic structure 
     atomic species   magnetization
     Fe              0.400

     48 Sym. Ops., with inversion, found


                                    s                        frac. trans.

      isym =  1     identity                                     

 cryst.   s( 1) = (     1          0          0      )
                  (     0          1          0      )
                  (     0          0          1      )

 cart.    s( 1) = (  1.0000000  0.0000000  0.0000000 )
                  (  0.0000000  1.0000000  0.0000000 )
                  (  0.0000000  0.0000000  1.0000000 )


      isym =  2     180 deg rotation - cart. axis [0,0,1]        

 cryst.   s( 2) = (    -1          0          0      )
                  (     0         -1          0      )
                  (     0          0          1      )

 cart.    s( 2) = ( -1.0000000  0.0000000  0.0000000 )
                  (  0.0000000 -1.0000000  0.0000000 )
                  (  0.0000000  0.0000000  1.0000000 )


      isym =  3     180 deg rotation - cart. axis [0,1,0]        

 cryst.   s( 3) = (    -1          0          0      )
                  (     0          1          0      )
                  (     0          0         -1      )

 cart.    s( 3) = ( -1.0000000  0.0000000  0.0000000 )
                  (  0.0000000  1.0000000  0.0000000 )
                  (  0.0000000  0.0000000 -1.0000000 )


      isym =  4     180 deg rotation - cart. axis [1,0,0]        

 cryst.   s( 4) = (     1          0          0      )
                  (     0         -1          0      )
                  (     0          0         -1      )

 cart.    s( 4) = (  1.0000000  0.0000000  0.0000000 )
                  (  0.0000000 -1.0000000  0.0000000 )
                  (  0.0000000  0.0000000 -1.0000000 )


      isym =  5     180 deg rotation - cart. axis [1,1,0]        

 cryst.   s( 5) = (     0          1          0      )
                  (     1          0          0      )
                  (     0          0         -1      )

 cart.    s( 5) = (  0.0000000  1.0000000  0.0000000 )
                  (  1.0000000  0.0000000  0.0000000 )
                  (  0.0000000  0.0000000 -1.0000000 )


      isym =  6     180 deg rotation - cart. axis [1,-1,0]       

 cryst.   s( 6) = (     0         -1          0      )
                  (    -1          0          0      )
                  (     0          0         -1      )

 cart.    s( 6) = (  0.0000000 -1.0000000  0.0000000 )
                  ( -1.0000000  0.0000000  0.0000000 )
                  (  0.0000000  0.0000000 -1.0000000 )


      isym =  7      90 deg rotation - cart. axis [0,0,-1]       

 cryst.   s( 7) = (     0         -1          0      )
                  (     1          0          0      )
                  (     0          0          1      )

 cart.    s( 7) = (  0.0000000  1.0000000  0.0000000 )
                  ( -1.0000000  0.0000000  0.0000000 )
                  (  0.0000000  0.0000000  1.0000000 )


      isym =  8      90 deg rotation - cart. axis [0,0,1]        

 cryst.   s( 8) = (     0          1          0      )
                  (    -1          0          0      )
                  (     0          0          1      )

 cart.    s( 8) = (  0.0000000 -1.0000000  0.0000000 )
                  (  1.0000000  0.0000000  0.0000000 )
                  (  0.0000000  0.0000000  1.0000000 )


      isym =  9     180 deg rotation - cart. axis [1,0,1]        

 cryst.   s( 9) = (     0          0          1      )
                  (     0         -1          0      )
                  (     1          0          0      )

 cart.    s( 9) = (  0.0000000  0.0000000  1.0000000 )
                  (  0.0000000 -1.0000000  0.0000000 )
                  (  1.0000000  0.0000000  0.0000000 )


      isym = 10     180 deg rotation - cart. axis [-1,0,1]       

 cryst.   s(10) = (     0          0         -1      )
                  (     0         -1          0      )
                  (    -1          0          0      )

 cart.    s(10) = (  0.0000000  0.0000000 -1.0000000 )
                  (  0.0000000 -1.0000000  0.0000000 )
                  ( -1.0000000  0.0000000  0.0000000 )


      isym = 11      90 deg rotation - cart. axis [0,1,0]        

 cryst.   s(11) = (     0          0         -1      )
                  (     0          1          0      )
                  (     1          0          0      )

 cart.    s(11) = (  0.0000000  0.0000000  1.0000000 )
                  (  0.0000000  1.0000000  0.0000000 )
                  ( -1.0000000  0.0000000  0.0000000 )


      isym = 12      90 deg rotation - cart. axis [0,-1,0]       

 cryst.   s(12) = (     0          0          1      )
                  (     0          1          0      )
                  (    -1          0          0      )

 cart.    s(12) = (  0.0000000  0.0000000 -1.0000000 )
                  (  0.0000000  1.0000000  0.0000000 )
                  (  1.0000000  0.0000000  0.0000000 )


      isym = 13     180 deg rotation - cart. axis [0,1,1]        

 cryst.   s(13) = (    -1          0          0      )
                  (     0          0          1      )
                  (     0          1          0      )

 cart.    s(13) = ( -1.0000000  0.0000000  0.0000000 )
                  (  0.0000000  0.0000000  1.0000000 )
                  (  0.0000000  1.0000000  0.0000000 )


      isym = 14     180 deg rotation - cart. axis [0,1,-1]       

 cryst.   s(14) = (    -1          0          0      )
                  (     0          0         -1      )
                  (     0         -1          0      )

 cart.    s(14) = ( -1.0000000  0.0000000  0.0000000 )
                  (  0.0000000  0.0000000 -1.0000000 )
                  (  0.0000000 -1.0000000  0.0000000 )


      isym = 15      90 deg rotation - cart. axis [-1,0,0]       

 cryst.   s(15) = (     1          0          0      )
                  (     0          0         -1      )
                  (     0          1          0      )

 cart.    s(15) = (  1.0000000  0.0000000  0.0000000 )
                  (  0.0000000  0.0000000  1.0000000 )
                  (  0.0000000 -1.0000000  0.0000000 )


      isym = 16      90 deg rotation - cart. axis [1,0,0]        

 cryst.   s(16) = (     1          0          0      )
                  (     0          0          1      )
                  (     0         -1          0      )

 cart.    s(16) = (  1.0000000  0.0000000  0.0000000 )
                  (  0.0000000  0.0000000 -1.0000000 )
                  (  0.0000000  1.0000000  0.0000000 )


      isym = 17     120 deg rotation - cart. axis [-1,-1,-1]     

 cryst.   s(17) = (     0          0          1      )
                  (     1          0          0      )
                  (     0          1          0      )

 cart.    s(17) = (  0.0000000  1.0000000  0.0000000 )
                  (  0.0000000  0.0000000  1.0000000 )
                  (  1.0000000  0.0000000  0.0000000 )


      isym = 18     120 deg rotation - cart. axis [-1,1,1]       

 cryst.   s(18) = (     0          0         -1      )
                  (    -1          0          0      )
                  (     0          1          0      )

 cart.    s(18) = (  0.0000000 -1.0000000  0.0000000 )
                  (  0.0000000  0.0000000  1.0000000 )
                  ( -1.0000000  0.0000000  0.0000000 )


      isym = 19     120 deg rotation - cart. axis [1,1,-1]       

 cryst.   s(19) = (     0          0         -1      )
                  (     1          0          0      )
                  (     0         -1          0      )

 cart.    s(19) = (  0.0000000  1.0000000  0.0000000 )
                  (  0.0000000  0.0000000 -1.0000000 )
                  ( -1.0000000  0.0000000  0.0000000 )


      isym = 20     120 deg rotation - cart. axis [1,-1,1]       

 cryst.   s(20) = (     0          0          1      )
                  (    -1          0          0      )
                  (     0         -1          0      )

 cart.    s(20) = (  0.0000000 -1.0000000  0.0000000 )
                  (  0.0000000  0.0000000 -1.0000000 )
                  (  1.0000000  0.0000000  0.0000000 )


      isym = 21     120 deg rotation - cart. axis [1,1,1]        

 cryst.   s(21) = (     0          1          0      )
                  (     0          0          1      )
                  (     1          0          0      )

 cart.    s(21) = (  0.0000000  0.0000000  1.0000000 )
                  (  1.0000000  0.0000000  0.0000000 )
                  (  0.0000000  1.0000000  0.0000000 )


      isym = 22     120 deg rotation - cart. axis [-1,1,-1]      

 cryst.   s(22) = (     0         -1          0      )
                  (     0          0         -1      )
                  (     1          0          0      )

 cart.    s(22) = (  0.0000000  0.0000000  1.0000000 )
                  ( -1.0000000  0.0000000  0.0000000 )
                  (  0.0000000 -1.0000000  0.0000000 )


      isym = 23     120 deg rotation - cart. axis [1,-1,-1]      

 cryst.   s(23) = (     0         -1          0      )
                  (     0          0          1      )
                  (    -1          0          0      )

 cart.    s(23) = (  0.0000000  0.0000000 -1.0000000 )
                  ( -1.0000000  0.0000000  0.0000000 )
                  (  0.0000000  1.0000000  0.0000000 )


      isym = 24     120 deg rotation - cart. axis [-1,-1,1]      

 cryst.   s(24) = (     0          1          0      )
                  (     0          0         -1      )
                  (    -1          0          0      )

 cart.    s(24) = (  0.0000000  0.0000000 -1.0000000 )
                  (  1.0000000  0.0000000  0.0000000 )
                  (  0.0000000 -1.0000000  0.0000000 )


      isym = 25     inversion                                    

 cryst.   s(25) = (    -1          0          0      )
                  (     0         -1          0      )
                  (     0          0         -1      )

 cart.    s(25) = ( -1.0000000  0.0000000  0.0000000 )
                  (  0.0000000 -1.0000000  0.0000000 )
                  (  0.0000000  0.0000000 -1.0000000 )


      isym = 26     inv. 180 deg rotation - cart. axis [0,0,1]   

 cryst.   s(26) = (     1          0          0      )
                  (     0          1          0      )
                  (     0          0         -1      )

 cart.    s(26) = (  1.0000000  0.0000000  0.0000000 )
                  (  0.0000000  1.0000000  0.0000000 )
                  (  0.0000000  0.0000000 -1.0000000 )


      isym = 27     inv. 180 deg rotation - cart. axis [0,1,0]   

 cryst.   s(27) = (     1          0          0      )
                  (     0         -1          0      )
                  (     0          0          1      )

 cart.    s(27) = (  1.0000000  0.0000000  0.0000000 )
                  (  0.0000000 -1.0000000  0.0000000 )
                  (  0.0000000  0.0000000  1.0000000 )


      isym = 28     inv. 180 deg rotation - cart. axis [1,0,0]   

 cryst.   s(28) = (    -1          0          0      )
                  (     0          1          0      )
                  (     0          0          1      )

 cart.    s(28) = ( -1.0000000  0.0000000  0.0000000 )
                  (  0.0000000  1.0000000  0.0000000 )
                  (  0.0000000  0.0000000  1.0000000 )


      isym = 29     inv. 180 deg rotation - cart. axis [1,1,0]   

 cryst.   s(29) = (     0         -1          0      )
                  (    -1          0          0      )
                  (     0          0          1      )

 cart.    s(29) = (  0.0000000 -1.0000000  0.0000000 )
                  ( -1.0000000  0.0000000  0.0000000 )
                  (  0.0000000  0.0000000  1.0000000 )


      isym = 30     inv. 180 deg rotation - cart. axis [1,-1,0]  

 cryst.   s(30) = (     0          1          0      )
                  (     1          0          0      )
                  (     0          0          1      )

 cart.    s(30) = (  0.0000000  1.0000000  0.0000000 )
                  (  1.0000000  0.0000000  0.0000000 )
                  (  0.0000000  0.0000000  1.0000000 )


      isym = 31     inv.  90 deg rotation - cart. axis [0,0,-1]  

 cryst.   s(31) = (     0          1          0      )
                  (    -1          0          0      )
                  (     0          0         -1      )

 cart.    s(31) = (  0.0000000 -1.0000000  0.0000000 )
                  (  1.0000000  0.0000000  0.0000000 )
                  (  0.0000000  0.0000000 -1.0000000 )


      isym = 32     inv.  90 deg rotation - cart. axis [0,0,1]   

 cryst.   s(32) = (     0         -1          0      )
                  (     1          0          0      )
                  (     0          0         -1      )

 cart.    s(32) = (  0.0000000  1.0000000  0.0000000 )
                  ( -1.0000000  0.0000000  0.0000000 )
                  (  0.0000000  0.0000000 -1.0000000 )


      isym = 33     inv. 180 deg rotation - cart. axis [1,0,1]   

 cryst.   s(33) = (     0          0         -1      )
                  (     0          1          0      )
                  (    -1          0          0      )

 cart.    s(33) = (  0.0000000  0.0000000 -1.0000000 )
                  (  0.0000000  1.0000000  0.0000000 )
                  ( -1.0000000  0.0000000  0.0000000 )


      isym = 34     inv. 180 deg rotation - cart. axis [-1,0,1]  

 cryst.   s(34) = (     0          0          1      )
                  (     0          1          0      )
                  (     1          0          0      )

 cart.    s(34) = (  0.0000000  0.0000000  1.0000000 )
                  (  0.0000000  1.0000000  0.0000000 )
                  (  1.0000000  0.0000000  0.0000000 )


      isym = 35     inv.  90 deg rotation - cart. axis [0,1,0]   

 cryst.   s(35) = (     0          0          1      )
                  (     0         -1          0      )
                  (    -1          0          0      )

 cart.    s(35) = (  0.0000000  0.0000000 -1.0000000 )
                  (  0.0000000 -1.0000000  0.0000000 )
                  (  1.0000000  0.0000000  0.0000000 )


      isym = 36     inv.  90 deg rotation - cart. axis [0,-1,0]  

 cryst.   s(36) = (     0          0         -1      )
                  (     0         -1          0      )
                  (     1          0          0      )

 cart.    s(36) = (  0.0000000  0.0000000  1.0000000 )
                  (  0.0000000 -1.0000000  0.0000000 )
                  ( -1.0000000  0.0000000  0.0000000 )


      isym = 37     inv. 180 deg rotation - cart. axis [0,1,1]   

 cryst.   s(37) = (     1          0          0      )
                  (     0          0         -1      )
                  (     0         -1          0      )

 cart.    s(37) = (  1.0000000  0.0000000  0.0000000 )
                  (  0.0000000  0.0000000 -1.0000000 )
                  (  0.0000000 -1.0000000  0.0000000 )


      isym = 38     inv. 180 deg rotation - cart. axis [0,1,-1]  

 cryst.   s(38) = (     1          0          0      )
                  (     0          0          1      )
                  (     0          1          0      )

 cart.    s(38) = (  1.0000000  0.0000000  0.0000000 )
                  (  0.0000000  0.0000000  1.0000000 )
                  (  0.0000000  1.0000000  0.0000000 )


      isym = 39     inv.  90 deg rotation - cart. axis [-1,0,0]  

 cryst.   s(39) = (    -1          0          0      )
                  (     0          0          1      )
                  (     0         -1          0      )

 cart.    s(39) = ( -1.0000000  0.0000000  0.0000000 )
                  (  0.0000000  0.0000000 -1.0000000 )
                  (  0.0000000  1.0000000  0.0000000 )


      isym = 40     inv.  90 deg rotation - cart. axis [1,0,0]   

 cryst.   s(40) = (    -1          0          0      )
                  (     0          0         -1      )
                  (     0          1          0      )

 cart.    s(40) = ( -1.0000000  0.0000000  0.0000000 )
                  (  0.0000000  0.0000000  1.0000000 )
                  (  0.0000000 -1.0000000  0.0000000 )


      isym = 41     inv. 120 deg rotation - cart. axis [-1,-1,-1]

 cryst.   s(41) = (     0          0         -1      )
                  (    -1          0          0      )
                  (     0         -1          0      )

 cart.    s(41) = (  0.0000000 -1.0000000  0.0000000 )
                  (  0.0000000  0.0000000 -1.0000000 )
                  ( -1.0000000  0.0000000  0.0000000 )


      isym = 42     inv. 120 deg rotation - cart. axis [-1,1,1]  

 cryst.   s(42) = (     0          0          1      )
                  (     1          0          0      )
                  (     0         -1          0      )

 cart.    s(42) = (  0.0000000  1.0000000  0.0000000 )
                  (  0.0000000  0.0000000 -1.0000000 )
                  (  1.0000000  0.0000000  0.0000000 )


      isym = 43     inv. 120 deg rotation - cart. axis [1,1,-1]  

 cryst.   s(43) = (     0          0          1      )
                  (    -1          0          0      )
                  (     0          1          0      )

 cart.    s(43) = (  0.0000000 -1.0000000  0.0000000 )
                  (  0.0000000  0.0000000  1.0000000 )
                  (  1.0000000  0.0000000  0.0000000 )


      isym = 44     inv. 120 deg rotation - cart. axis [1,-1,1]  

 cryst.   s(44) = (     0          0         -1      )
                  (     1          0          0      )
                  (     0          1          0      )

 cart.    s(44) = (  0.0000000  1.0000000  0.0000000 )
                  (  0.0000000  0.0000000  1.0000000 )
                  ( -1.0000000  0.0000000  0.0000000 )


      isym = 45     inv. 120 deg rotation - cart. axis [1,1,1]   

 cryst.   s(45) = (     0         -1          0      )
                  (     0          0         -1      )
                  (    -1          0          0      )

 cart.    s(45) = (  0.0000000  0.0000000 -1.0000000 )
                  ( -1.0000000  0.0000000  0.0000000 )
                  (  0.0000000 -1.0000000  0.0000000 )


      isym = 46     inv. 120 deg rotation - cart. axis [-1,1,-1] 

 cryst.   s(46) = (     0          1          0      )
                  (     0          0          1      )
                  (    -1          0          0      )

 cart.    s(46) = (  0.0000000  0.0000000 -1.0000000 )
                  (  1.0000000  0.0000000  0.0000000 )
                  (  0.0000000  1.0000000  0.0000000 )


      isym = 47     inv. 120 deg rotation - cart. axis [1,-1,-1] 

 cryst.   s(47) = (     0          1          0      )
                  (     0          0         -1      )
                  (     1          0          0      )

 cart.    s(47) = (  0.0000000  0.0000000  1.0000000 )
                  (  1.0000000  0.0000000  0.0000000 )
                  (  0.0000000 -1.0000000  0.0000000 )


      isym = 48     inv. 120 deg rotation - cart. axis [-1,-1,1] 

 cryst.   s(48) = (     0         -1          0      )
                  (     0          0          1      )
                  (     1          0          0      )

 cart.    s(48) = (  0.0000000  0.0000000  1.0000000 )
                  ( -1.0000000  0.0000000  0.0000000 )
                  (  0.0000000  1.0000000  0.0000000 )


   Cartesian axes

     site n.     atom                  positions (alat units)
         1        Fe     tau(   1) = (   0.0000000   0.0000000   0.0000000  )
         2        Fe     tau(   2) = (   0.1250000   0.1250000   0.1250000  )
         3        Fe     tau(   3) = (   0.0000000   0.0000000   0.2500000  )
         4        Fe     tau(   4) = (   0.1250000   0.1250000   0.3750000  )
         5        Fe     tau(   5) = (   0.0000000   0.0000000   0.5000000  )
         6        Fe     tau(   6) = (   0.1250000   0.1250000   0.6250000  )
         7        Fe     tau(   7) = (   0.0000000   0.0000000   0.7500000  )
         8        Fe     tau(   8) = (   0.1250000   0.1250000   0.8750000  )
         9        Fe     tau(   9) = (   0.0000000   0.2500000   0.0000000  )
        10        Fe     tau(  10) = (   0.1250000   0.3750000   0.1250000  )
        11        Fe     tau(  11) = (   0.0000000   0.2500000   0.2500000  )
        12        Fe     tau(  12) = (   0.1250000   0.3750000   0.3750000  )
        13        Fe     tau(  13) = (   0.0000000   0.2500000   0.5000000  )
        14        Fe     tau(  14) = (   0.1250000   0.3750000   0.6250000  )
        15        Fe     tau(  15) = (   0.0000000   0.2500000   0.7500000  )
        16        Fe     tau(  16) = (   0.1250000   0.3750000   0.8750000  )
        17        Fe     tau(  17) = (   0.0000000   0.5000000   0.0000000  )
        18        Fe     tau(  18) = (   0.1250000   0.6250000   0.1250000  )
        19        Fe     tau(  19) = (   0.0000000   0.5000000   0.2500000  )
        20        Fe     tau(  20) = (   0.1250000   0.6250000   0.3750000  )
        21        Fe     tau(  21) = (   0.0000000   0.5000000   0.5000000  )
        22        Fe     tau(  22) = (   0.1250000   0.6250000   0.6250000  )
        23        Fe     tau(  23) = (   0.0000000   0.5000000   0.7500000  )
        24        Fe     tau(  24) = (   0.1250000   0.6250000   0.8750000  )
        25        Fe     tau(  25) = (   0.0000000   0.7500000   0.0000000  )
        26        Fe     tau(  26) = (   0.1250000   0.8750000   0.1250000  )
        27        Fe     tau(  27) = (   0.0000000   0.7500000   0.2500000  )
        28        Fe     tau(  28) = (   0.1250000   0.8750000   0.3750000  )
        29        Fe     tau(  29) = (   0.0000000   0.7500000   0.5000000  )
        30        Fe     tau(  30) = (   0.1250000   0.8750000   0.6250000  )
        31        Fe     tau(  31) = (   0.0000000   0.7500000   0.7500000  )
        32        Fe     tau(  32) = (   0.1250000   0.8750000   0.8750000  )
        33        Fe     tau(  33) = (   0.2500000   0.0000000   0.0000000  )
        34        Fe     tau(  34) = (   0.3750000   0.1250000   0.1250000  )
        35        Fe     tau(  35) = (   0.2500000   0.0000000   0.2500000  )
        36        Fe     tau(  36) = (   0.3750000   0.1250000   0.3750000  )
        37        Fe     tau(  37) = (   0.2500000   0.0000000   0.5000000  )
        38        Fe     tau(  38) = (   0.3750000   0.1250000   0.6250000  )
        39        Fe     tau(  39) = (   0.2500000   0.0000000   0.7500000  )
        40        Fe     tau(  40) = (   0.3750000   0.1250000   0.8750000  )
        41        Fe     tau(  41) = (   0.2500000   0.2500000   0.0000000  )
        42        Fe     tau(  42) = (   0.3750000   0.3750000   0.1250000  )
        43        Fe     tau(  43) = (   0.2500000   0.2500000   0.2500000  )
        44        Fe     tau(  44) = (   0.3750000   0.3750000   0.3750000  )
        45        Fe     tau(  45) = (   0.2500000   0.2500000   0.5000000  )
        46        Fe     tau(  46) = (   0.3750000   0.3750000   0.6250000  )
        47        Fe     tau(  47) = (   0.2500000   0.2500000   0.7500000  )
        48        Fe     tau(  48) = (   0.3750000   0.3750000   0.8750000  )
        49        Fe     tau(  49) = (   0.2500000   0.5000000   0.0000000  )
        50        Fe     tau(  50) = (   0.3750000   0.6250000   0.1250000  )
        51        Fe     tau(  51) = (   0.2500000   0.5000000   0.2500000  )
        52        Fe     tau(  52) = (   0.3750000   0.6250000   0.3750000  )
        53        Fe     tau(  53) = (   0.2500000   0.5000000   0.5000000  )
        54        Fe     tau(  54) = (   0.3750000   0.6250000   0.6250000  )
        55        Fe     tau(  55) = (   0.2500000   0.5000000   0.7500000  )
        56        Fe     tau(  56) = (   0.3750000   0.6250000   0.8750000  )
        57        Fe     tau(  57) = (   0.2500000   0.7500000   0.0000000  )
        58        Fe     tau(  58) = (   0.3750000   0.8750000   0.1250000  )
        59        Fe     tau(  59) = (   0.2500000   0.7500000   0.2500000  )
        60        Fe     tau(  60) = (   0.3750000   0.8750000   0.3750000  )
        61        Fe     tau(  61) = (   0.2500000   0.7500000   0.5000000  )
        62        Fe     tau(  62) = (   0.3750000   0.8750000   0.6250000  )
        63        Fe     tau(  63) = (   0.2500000   0.7500000   0.7500000  )
        64        Fe     tau(  64) = (   0.3750000   0.8750000   0.8750000  )
        65        Fe     tau(  65) = (   0.5000000   0.0000000   0.0000000  )
        66        Fe     tau(  66) = (   0.6250000   0.1250000   0.1250000  )
        67        Fe     tau(  67) = (   0.5000000   0.0000000   0.2500000  )
        68        Fe     tau(  68) = (   0.6250000   0.1250000   0.3750000  )
        69        Fe     tau(  69) = (   0.5000000   0.0000000   0.5000000  )
        70        Fe     tau(  70) = (   0.6250000   0.1250000   0.6250000  )
        71        Fe     tau(  71) = (   0.5000000   0.0000000   0.7500000  )
        72        Fe     tau(  72) = (   0.6250000   0.1250000   0.8750000  )
        73        Fe     tau(  73) = (   0.5000000   0.2500000   0.0000000  )
        74        Fe     tau(  74) = (   0.6250000   0.3750000   0.1250000  )
        75        Fe     tau(  75) = (   0.5000000   0.2500000   0.2500000  )
        76        Fe     tau(  76) = (   0.6250000   0.3750000   0.3750000  )
        77        Fe     tau(  77) = (   0.5000000   0.2500000   0.5000000  )
        78        Fe     tau(  78) = (   0.6250000   0.3750000   0.6250000  )
        79        Fe     tau(  79) = (   0.5000000   0.2500000   0.7500000  )
        80        Fe     tau(  80) = (   0.6250000   0.3750000   0.8750000  )
        81        Fe     tau(  81) = (   0.5000000   0.5000000   0.0000000  )
        82        Fe     tau(  82) = (   0.6250000   0.6250000   0.1250000  )
        83        Fe     tau(  83) = (   0.5000000   0.5000000   0.2500000  )
        84        Fe     tau(  84) = (   0.6250000   0.6250000   0.3750000  )
        85        Fe     tau(  85) = (   0.5000000   0.5000000   0.5000000  )
        86        Fe     tau(  86) = (   0.6250000   0.6250000   0.6250000  )
        87        Fe     tau(  87) = (   0.5000000   0.5000000   0.7500000  )
        88        Fe     tau(  88) = (   0.6250000   0.6250000   0.8750000  )
        89        Fe     tau(  89) = (   0.5000000   0.7500000   0.0000000  )
        90        Fe     tau(  90) = (   0.6250000   0.8750000   0.1250000  )
        91        Fe     tau(  91) = (   0.5000000   0.7500000   0.2500000  )
        92        Fe     tau(  92) = (   0.6250000   0.8750000   0.3750000  )
        93        Fe     tau(  93) = (   0.5000000   0.7500000   0.5000000  )
        94        Fe     tau(  94) = (   0.6250000   0.8750000   0.6250000  )
        95        Fe     tau(  95) = (   0.5000000   0.7500000   0.7500000  )
        96        Fe     tau(  96) = (   0.6250000   0.8750000   0.8750000  )
        97        Fe     tau(  97) = (   0.7500000   0.0000000   0.0000000  )
        98        Fe     tau(  98) = (   0.8750000   0.1250000   0.1250000  )
        99        Fe     tau(  99) = (   0.7500000   0.0000000   0.2500000  )
       100        Fe     tau( 100) = (   0.8750000   0.1250000   0.3750000  )
       101        Fe     tau( 101) = (   0.7500000   0.0000000   0.5000000  )
       102        Fe     tau( 102) = (   0.8750000   0.1250000   0.6250000  )
       103        Fe     tau( 103) = (   0.7500000   0.0000000   0.7500000  )
       104        Fe     tau( 104) = (   0.8750000   0.1250000   0.8750000  )
       105        Fe     tau( 105) = (   0.7500000   0.2500000   0.0000000  )
       106        Fe     tau( 106) = (   0.8750000   0.3750000   0.1250000  )
       107        Fe     tau( 107) = (   0.7500000   0.2500000   0.2500000  )
       108        Fe     tau( 108) = (   0.8750000   0.3750000   0.3750000  )
       109        Fe     tau( 109) = (   0.7500000   0.2500000   0.5000000  )
       110        Fe     tau( 110) = (   0.8750000   0.3750000   0.6250000  )
       111        Fe     tau( 111) = (   0.7500000   0.2500000   0.7500000  )
       112        Fe     tau( 112) = (   0.8750000   0.3750000   0.8750000  )
       113        Fe     tau( 113) = (   0.7500000   0.5000000   0.0000000  )
       114        Fe     tau( 114) = (   0.8750000   0.6250000   0.1250000  )
       115        Fe     tau( 115) = (   0.7500000   0.5000000   0.2500000  )
       116        Fe     tau( 116) = (   0.8750000   0.6250000   0.3750000  )
       117        Fe     tau( 117) = (   0.7500000   0.5000000   0.5000000  )
       118        Fe     tau( 118) = (   0.8750000   0.6250000   0.6250000  )
       119        Fe     tau( 119) = (   0.7500000   0.5000000   0.7500000  )
       120        Fe     tau( 120) = (   0.8750000   0.6250000   0.8750000  )
       121        Fe     tau( 121) = (   0.7500000   0.7500000   0.0000000  )
       122        Fe     tau( 122) = (   0.8750000   0.8750000   0.1250000  )
       123        Fe     tau( 123) = (   0.7500000   0.7500000   0.2500000  )
       124        Fe     tau( 124) = (   0.8750000   0.8750000   0.3750000  )
       125        Fe     tau( 125) = (   0.7500000   0.7500000   0.5000000  )
       126        Fe     tau( 126) = (   0.8750000   0.8750000   0.6250000  )
       127        Fe     tau( 127) = (   0.7500000   0.7500000   0.7500000  )
       128        Fe     tau( 128) = (   0.8750000   0.8750000   0.8750000  )

   Crystallographic axes

     site n.     atom                  positions (cryst. coord.)
         1        Fe     tau(   1) = (  0.0000000  0.0000000  0.0000000  )
         2        Fe     tau(   2) = (  0.1250000  0.1250000  0.1250000  )
         3        Fe     tau(   3) = (  0.0000000  0.0000000  0.2500000  )
         4        Fe     tau(   4) = (  0.1250000  0.1250000  0.3750000  )
         5        Fe     tau(   5) = (  0.0000000  0.0000000  0.5000000  )
         6        Fe     tau(   6) = (  0.1250000  0.1250000  0.6250000  )
         7        Fe     tau(   7) = (  0.0000000  0.0000000  0.7500000  )
         8        Fe     tau(   8) = (  0.1250000  0.1250000  0.8750000  )
         9        Fe     tau(   9) = (  0.0000000  0.2500000  0.0000000  )
        10        Fe     tau(  10) = (  0.1250000  0.3750000  0.1250000  )
        11        Fe     tau(  11) = (  0.0000000  0.2500000  0.2500000  )
        12        Fe     tau(  12) = (  0.1250000  0.3750000  0.3750000  )
        13        Fe     tau(  13) = (  0.0000000  0.2500000  0.5000000  )
        14        Fe     tau(  14) = (  0.1250000  0.3750000  0.6250000  )
        15        Fe     tau(  15) = (  0.0000000  0.2500000  0.7500000  )
        16        Fe     tau(  16) = (  0.1250000  0.3750000  0.8750000  )
        17        Fe     tau(  17) = (  0.0000000  0.5000000  0.0000000  )
        18        Fe     tau(  18) = (  0.1250000  0.6250000  0.1250000  )
        19        Fe     tau(  19) = (  0.0000000  0.5000000  0.2500000  )
        20        Fe     tau(  20) = (  0.1250000  0.6250000  0.3750000  )
        21        Fe     tau(  21) = (  0.0000000  0.5000000  0.5000000  )
        22        Fe     tau(  22) = (  0.1250000  0.6250000  0.6250000  )
        23        Fe     tau(  23) = (  0.0000000  0.5000000  0.7500000  )
        24        Fe     tau(  24) = (  0.1250000  0.6250000  0.8750000  )
        25        Fe     tau(  25) = (  0.0000000  0.7500000  0.0000000  )
        26        Fe     tau(  26) = (  0.1250000  0.8750000  0.1250000  )
        27        Fe     tau(  27) = (  0.0000000  0.7500000  0.2500000  )
        28        Fe     tau(  28) = (  0.1250000  0.8750000  0.3750000  )
        29        Fe     tau(  29) = (  0.0000000  0.7500000  0.5000000  )
        30        Fe     tau(  30) = (  0.1250000  0.8750000  0.6250000  )
        31        Fe     tau(  31) = (  0.0000000  0.7500000  0.7500000  )
        32        Fe     tau(  32) = (  0.1250000  0.8750000  0.8750000  )
        33        Fe     tau(  33) = (  0.2500000  0.0000000  0.0000000  )
        34        Fe     tau(  34) = (  0.3750000  0.1250000  0.1250000  )
        35        Fe     tau(  35) = (  0.2500000  0.0000000  0.2500000  )
        36        Fe     tau(  36) = (  0.3750000  0.1250000  0.3750000  )
        37        Fe     tau(  37) = (  0.2500000  0.0000000  0.5000000  )
        38        Fe     tau(  38) = (  0.3750000  0.1250000  0.6250000  )
        39        Fe     tau(  39) = (  0.2500000  0.0000000  0.7500000  )
        40        Fe     tau(  40) = (  0.3750000  0.1250000  0.8750000  )
        41        Fe     tau(  41) = (  0.2500000  0.2500000  0.0000000  )
        42        Fe     tau(  42) = (  0.3750000  0.3750000  0.1250000  )
        43        Fe     tau(  43) = (  0.2500000  0.2500000  0.2500000  )
        44        Fe     tau(  44) = (  0.3750000  0.3750000  0.3750000  )
        45        Fe     tau(  45) = (  0.2500000  0.2500000  0.5000000  )
        46        Fe     tau(  46) = (  0.3750000  0.3750000  0.6250000  )
        47        Fe     tau(  47) = (  0.2500000  0.2500000  0.7500000  )
        48        Fe     tau(  48) = (  0.3750000  0.3750000  0.8750000  )
        49        Fe     tau(  49) = (  0.2500000  0.5000000  0.0000000  )
        50        Fe     tau(  50) = (  0.3750000  0.6250000  0.1250000  )
        51        Fe     tau(  51) = (  0.2500000  0.5000000  0.2500000  )
        52        Fe     tau(  52) = (  0.3750000  0.6250000  0.3750000  )
        53        Fe     tau(  53) = (  0.2500000  0.5000000  0.5000000  )
        54        Fe     tau(  54) = (  0.3750000  0.6250000  0.6250000  )
        55        Fe     tau(  55) = (  0.2500000  0.5000000  0.7500000  )
        56        Fe     tau(  56) = (  0.3750000  0.6250000  0.8750000  )
        57        Fe     tau(  57) = (  0.2500000  0.7500000  0.0000000  )
        58        Fe     tau(  58) = (  0.3750000  0.8750000  0.1250000  )
        59        Fe     tau(  59) = (  0.2500000  0.7500000  0.2500000  )
        60        Fe     tau(  60) = (  0.3750000  0.8750000  0.3750000  )
        61        Fe     tau(  61) = (  0.2500000  0.7500000  0.5000000  )
        62        Fe     tau(  62) = (  0.3750000  0.8750000  0.6250000  )
        63        Fe     tau(  63) = (  0.2500000  0.7500000  0.7500000  )
        64        Fe     tau(  64) = (  0.3750000  0.8750000  0.8750000  )
        65        Fe     tau(  65) = (  0.5000000  0.0000000  0.0000000  )
        66        Fe     tau(  66) = (  0.6250000  0.1250000  0.1250000  )
        67        Fe     tau(  67) = (  0.5000000  0.0000000  0.2500000  )
        68        Fe     tau(  68) = (  0.6250000  0.1250000  0.3750000  )
        69        Fe     tau(  69) = (  0.5000000  0.0000000  0.5000000  )
        70        Fe     tau(  70) = (  0.6250000  0.1250000  0.6250000  )
        71        Fe     tau(  71) = (  0.5000000  0.0000000  0.7500000  )
        72        Fe     tau(  72) = (  0.6250000  0.1250000  0.8750000  )
        73        Fe     tau(  73) = (  0.5000000  0.2500000  0.0000000  )
        74        Fe     tau(  74) = (  0.6250000  0.3750000  0.1250000  )
        75        Fe     tau(  75) = (  0.5000000  0.2500000  0.2500000  )
        76        Fe     tau(  76) = (  0.6250000  0.3750000  0.3750000  )
        77        Fe     tau(  77) = (  0.5000000  0.2500000  0.5000000  )
        78        Fe     tau(  78) = (  0.6250000  0.3750000  0.6250000  )
        79        Fe     tau(  79) = (  0.5000000  0.2500000  0.7500000  )
        80        Fe     tau(  80) = (  0.6250000  0.3750000  0.8750000  )
        81        Fe     tau(  81) = (  0.5000000  0.5000000  0.0000000  )
        82        Fe     tau(  82) = (  0.6250000  0.6250000  0.1250000  )
        83        Fe     tau(  83) = (  0.5000000  0.5000000  0.2500000  )
        84        Fe     tau(  84) = (  0.6250000  0.6250000  0.3750000  )
        85        Fe     tau(  85) = (  0.5000000  0.5000000  0.5000000  )
        86        Fe     tau(  86) = (  0.6250000  0.6250000  0.6250000  )
        87        Fe     tau(  87) = (  0.5000000  0.5000000  0.7500000  )
        88        Fe     tau(  88) = (  0.6250000  0.6250000  0.8750000  )
        89        Fe     tau(  89) = (  0.5000000  0.7500000  0.0000000  )
        90        Fe     tau(  90) = (  0.6250000  0.8750000  0.1250000  )
        91        Fe     tau(  91) = (  0.5000000  0.7500000  0.2500000  )
        92        Fe     tau(  92) = (  0.6250000  0.8750000  0.3750000  )
        93        Fe     tau(  93) = (  0.5000000  0.7500000  0.5000000  )
        94        Fe     tau(  94) = (  0.6250000  0.8750000  0.6250000  )
        95        Fe     tau(  95) = (  0.5000000  0.7500000  0.7500000  )
        96        Fe     tau(  96) = (  0.6250000  0.8750000  0.8750000  )
        97        Fe     tau(  97) = (  0.7500000  0.0000000  0.0000000  )
        98        Fe     tau(  98) = (  0.8750000  0.1250000  0.1250000  )
        99        Fe     tau(  99) = (  0.7500000  0.0000000  0.2500000  )
       100        Fe     tau( 100) = (  0.8750000  0.1250000  0.3750000  )
       101        Fe     tau( 101) = (  0.7500000  0.0000000  0.5000000  )
       102        Fe     tau( 102) = (  0.8750000  0.1250000  0.6250000  )
       103        Fe     tau( 103) = (  0.7500000  0.0000000  0.7500000  )
       104        Fe     tau( 104) = (  0.8750000  0.1250000  0.8750000  )
       105        Fe     tau( 105) = (  0.7500000  0.2500000  0.0000000  )
       106        Fe     tau( 106) = (  0.8750000  0.3750000  0.1250000  )
       107        Fe     tau( 107) = (  0.7500000  0.2500000  0.2500000  )
       108        Fe     tau( 108) = (  0.8750000  0.3750000  0.3750000  )
       109        Fe     tau( 109) = (  0.7500000  0.2500000  0.5000000  )
       110        Fe     tau( 110) = (  0.8750000  0.3750000  0.6250000  )
       111        Fe     tau( 111) = (  0.7500000  0.2500000  0.7500000  )
       112        Fe     tau( 112) = (  0.8750000  0.3750000  0.8750000  )
       113        Fe     tau( 113) = (  0.7500000  0.5000000  0.0000000  )
       114        Fe     tau( 114) = (  0.8750000  0.6250000  0.1250000  )
       115        Fe     tau( 115) = (  0.7500000  0.5000000  0.2500000  )
       116        Fe     tau( 116) = (  0.8750000  0.6250000  0.3750000  )
       117        Fe     tau( 117) = (  0.7500000  0.5000000  0.5000000  )
       118        Fe     tau( 118) = (  0.8750000  0.6250000  0.6250000  )
       119        Fe     tau( 119) = (  0.7500000  0.5000000  0.7500000  )
       120        Fe     tau( 120) = (  0.8750000  0.6250000  0.8750000  )
       121        Fe     tau( 121) = (  0.7500000  0.7500000  0.0000000  )
       122        Fe     tau( 122) = (  0.8750000  0.8750000  0.1250000  )
       123        Fe     tau( 123) = (  0.7500000  0.7500000  0.2500000  )
       124        Fe     tau( 124) = (  0.8750000  0.8750000  0.3750000  )
       125        Fe     tau( 125) = (  0.7500000  0.7500000  0.5000000  )
       126        Fe     tau( 126) = (  0.8750000  0.8750000  0.6250000  )
       127        Fe     tau( 127) = (  0.7500000  0.7500000  0.7500000  )
       128        Fe     tau( 128) = (  0.8750000  0.8750000  0.8750000  )

     number of k points=    20  Marzari-Vanderbilt smearing, width (Ry)=  0.0100
                       cart. coord. in units 2pi/alat
        k(    1) = (   0.0000000   0.0000000   0.0000000), wk =   0.0046296
        k(    2) = (   0.0000000   0.0000000   0.1666667), wk =   0.0277778
        k(    3) = (   0.0000000   0.0000000   0.3333333), wk =   0.0277778
        k(    4) = (   0.0000000   0.0000000  -0.5000000), wk =   0.0138889
        k(    5) = (   0.0000000   0.1666667   0.1666667), wk =   0.0555556
        k(    6) = (   0.0000000   0.1666667   0.3333333), wk =   0.1111111
        k(    7) = (   0.0000000   0.1666667  -0.5000000), wk =   0.0555556
        k(    8) = (   0.0000000   0.3333333   0.3333333), wk =   0.0555556
        k(    9) = (   0.0000000   0.3333333  -0.5000000), wk =   0.0555556
        k(   10) = (   0.0000000  -0.5000000  -0.5000000), wk =   0.0138889
        k(   11) = (   0.1666667   0.1666667   0.1666667), wk =   0.0370370
        k(   12) = (   0.1666667   0.1666667   0.3333333), wk =   0.1111111
        k(   13) = (   0.1666667   0.1666667  -0.5000000), wk =   0.0555556
        k(   14) = (   0.1666667   0.3333333   0.3333333), wk =   0.1111111
        k(   15) = (   0.1666667   0.3333333  -0.5000000), wk =   0.1111111
        k(   16) = (   0.1666667  -0.5000000  -0.5000000), wk =   0.0277778
        k(   17) = (   0.3333333   0.3333333   0.3333333), wk =   0.0370370
        k(   18) = (   0.3333333   0.3333333  -0.5000000), wk =   0.0555556
        k(   19) = (   0.3333333  -0.5000000  -0.5000000), wk =   0.0277778
        k(   20) = (  -0.5000000  -0.5000000  -0.5000000), wk =   0.0046296

                       cryst. coord.
        k(    1) = (   0.0000000   0.0000000   0.0000000), wk =   0.0046296
        k(    2) = (   0.0000000   0.0000000   0.1666667), wk =   0.0277778
        k(    3) = (   0.0000000   0.0000000   0.3333333), wk =   0.0277778
        k(    4) = (   0.0000000   0.0000000  -0.5000000), wk =   0.0138889
        k(    5) = (   0.0000000   0.1666667   0.1666667), wk =   0.0555556
        k(    6) = (   0.0000000   0.1666667   0.3333333), wk =   0.1111111
        k(    7) = (   0.0000000   0.1666667  -0.5000000), wk =   0.0555556
        k(    8) = (   0.0000000   0.3333333   0.3333333), wk =   0.0555556
        k(    9) = (   0.0000000   0.3333333  -0.5000000), wk =   0.0555556
        k(   10) = (   0.0000000  -0.5000000  -0.5000000), wk =   0.0138889
        k(   11) = (   0.1666667   0.1666667   0.1666667), wk =   0.0370370
        k(   12) = (   0.1666667   0.1666667   0.3333333), wk =   0.1111111
        k(   13) = (   0.1666667   0.1666667  -0.5000000), wk =   0.0555556
        k(   14) = (   0.1666667   0.3333333   0.3333333), wk =   0.1111111
        k(   15) = (   0.1666667   0.3333333  -0.5000000), wk =   0.1111111
        k(   16) = (   0.1666667  -0.5000000  -0.5000000), wk =   0.0277778
        k(   17) = (   0.3333333   0.3333333   0.3333333), wk =   0.0370370
        k(   18) = (   0.3333333   0.3333333  -0.5000000), wk =   0.0555556
        k(   19) = (   0.3333333  -0.5000000  -0.5000000), wk =   0.0277778
        k(   20) = (  -0.5000000  -0.5000000  -0.5000000), wk =   0.0046296

     Dense  grid:  6107759 G-vectors     FFT dimensions: ( 240, 240, 240)

     Smooth grid:  1174959 G-vectors     FFT dimensions: ( 135, 135, 135)

     Dynamical RAM for                 wfc:      86.10 MB

     Dynamical RAM for     wfc (w. buffer):     947.05 MB

     Dynamical RAM for           str. fact:       2.91 MB

     Dynamical RAM for           local pot:       0.00 MB

     Dynamical RAM for          nlocal pot:     161.40 MB

     Dynamical RAM for                qrad:       2.64 MB

     Dynamical RAM for          rho,v,vnew:      38.57 MB

     Dynamical RAM for               rhoin:      12.86 MB

     Dynamical RAM for            rho*nmix:      93.20 MB

     Dynamical RAM for           G-vectors:      11.20 MB

     Dynamical RAM for          h,s,v(r/c):      11.04 MB

     Dynamical RAM for          <psi|beta>:      43.21 MB

     Dynamical RAM for                 psi:     172.19 MB

     Dynamical RAM for                hpsi:     172.19 MB

     Dynamical RAM for                spsi:     172.19 MB

     Dynamical RAM for      wfcinit/wfcrot:     216.85 MB

     Dynamical RAM for           addusdens:     233.72 MB

     Dynamical RAM for          addusforce:     417.48 MB

     Dynamical RAM for         addusstress:     149.63 MB

     Estimated static dynamical RAM per process >       1.18 GB

     Estimated max dynamical RAM per process >       1.82 GB

     Estimated total dynamical RAM >     224.71 GB
     Generating pointlists ...
     new r_m :   0.0893 (alat units)  1.9362 (a.u.) for type    1

     Initial potential from superposition of free atoms

     starting charge    2047.9440, renormalised to    2048.0000
     Starting wfcs are 1280 randomized atomic wfcs
     Checking if some PAW data can be deallocated... 

     total cpu time spent up to now is      265.9 secs

     per-process dynamical memory:  1479.1 Mb

     Self-consistent Calculation

     iteration #  1     ecut=    90.00 Ry     beta= 0.20
     Davidson diagonalization with overlap

---- Real-time Memory Report at c_bands before calling an iterative solver
          2183 MiB given to the printing process from OS
          1444 MiB allocation reported by mallinfo(arena+hblkhd)
        231456 MiB available memory on the node where the printing process lives
------------------
     ethr =  1.00E-02,  avg # of iterations =  3.5

     total cpu time spent up to now is     1252.1 secs

     total energy              =  -42125.88987775 Ry
     estimated scf accuracy    <      35.61493457 Ry

     total magnetization       =   400.42 Bohr mag/cell
     absolute magnetization    =   405.53 Bohr mag/cell

     iteration #  2     ecut=    90.00 Ry     beta= 0.20
     Davidson diagonalization with overlap

---- Real-time Memory Report at c_bands before calling an iterative solver
          2607 MiB given to the printing process from OS
          1462 MiB allocation reported by mallinfo(arena+hblkhd)
        229845 MiB available memory on the node where the printing process lives
------------------
     ethr =  1.74E-03,  avg # of iterations =  3.2

     negative rho (up, down):  0.000E+00 1.046E-02

     total cpu time spent up to now is     2079.7 secs

     total energy              =  -42140.08757838 Ry
     estimated scf accuracy    <      24.74966790 Ry

     total magnetization       =   389.50 Bohr mag/cell
     absolute magnetization    =   398.63 Bohr mag/cell

     iteration #  3     ecut=    90.00 Ry     beta= 0.20
     Davidson diagonalization with overlap

---- Real-time Memory Report at c_bands before calling an iterative solver
          2634 MiB given to the printing process from OS
          1465 MiB allocation reported by mallinfo(arena+hblkhd)
        229738 MiB available memory on the node where the printing process lives
------------------
     ethr =  1.21E-03,  avg # of iterations =  5.5

     negative rho (up, down):  0.000E+00 3.879E-02

     total cpu time spent up to now is     2973.9 secs

     total energy              =  -42135.02523089 Ry
     estimated scf accuracy    <     408.86442755 Ry

     total magnetization       =   354.15 Bohr mag/cell
     absolute magnetization    =   366.30 Bohr mag/cell

     iteration #  4     ecut=    90.00 Ry     beta= 0.20
     Davidson diagonalization with overlap

---- Real-time Memory Report at c_bands before calling an iterative solver
          2637 MiB given to the printing process from OS
          1468 MiB allocation reported by mallinfo(arena+hblkhd)
        261513 MiB available memory on the node where the printing process lives
------------------
     ethr =  1.21E-03,  avg # of iterations =  3.8

     negative rho (up, down):  0.000E+00 5.361E-02

     total cpu time spent up to now is     3796.0 secs

     total energy              =  -42144.53826987 Ry
     estimated scf accuracy    <      41.62393511 Ry

     total magnetization       =   334.35 Bohr mag/cell
     absolute magnetization    =   352.76 Bohr mag/cell

     iteration #  5     ecut=    90.00 Ry     beta= 0.20
     Davidson diagonalization with overlap

---- Real-time Memory Report at c_bands before calling an iterative solver
          2640 MiB given to the printing process from OS
          1471 MiB allocation reported by mallinfo(arena+hblkhd)
        262729 MiB available memory on the node where the printing process lives
------------------
     ethr =  1.21E-03,  avg # of iterations =  1.6

     negative rho (up, down):  0.000E+00 5.347E-02

     total cpu time spent up to now is     4584.0 secs

     total energy              =  -42145.97925736 Ry
     estimated scf accuracy    <       8.48869214 Ry

     total magnetization       =   324.59 Bohr mag/cell
     absolute magnetization    =   344.46 Bohr mag/cell

     iteration #  6     ecut=    90.00 Ry     beta= 0.20
     Davidson diagonalization with overlap

---- Real-time Memory Report at c_bands before calling an iterative solver
          2643 MiB given to the printing process from OS
          1474 MiB allocation reported by mallinfo(arena+hblkhd)
        262621 MiB available memory on the node where the printing process lives
------------------
     ethr =  4.14E-04,  avg # of iterations =  2.4

     negative rho (up, down):  0.000E+00 5.134E-02

     total cpu time spent up to now is     5377.1 secs

     total energy              =  -42146.26602891 Ry
     estimated scf accuracy    <       1.85476558 Ry

     total magnetization       =   321.62 Bohr mag/cell
     absolute magnetization    =   341.43 Bohr mag/cell

     iteration #  7     ecut=    90.00 Ry     beta= 0.20
     Davidson diagonalization with overlap

---- Real-time Memory Report at c_bands before calling an iterative solver
          2646 MiB given to the printing process from OS
          1477 MiB allocation reported by mallinfo(arena+hblkhd)
        262511 MiB available memory on the node where the printing process lives
------------------
     ethr =  9.06E-05,  avg # of iterations =  6.3

     negative rho (up, down):  0.000E+00 4.617E-02

     total cpu time spent up to now is     6234.2 secs

     total energy              =  -42146.25071791 Ry
     estimated scf accuracy    <       1.16663256 Ry

     total magnetization       =   320.26 Bohr mag/cell
     absolute magnetization    =   339.91 Bohr mag/cell

     iteration #  8     ecut=    90.00 Ry     beta= 0.20
     Davidson diagonalization with overlap

---- Real-time Memory Report at c_bands before calling an iterative solver
          2649 MiB given to the printing process from OS
          1481 MiB allocation reported by mallinfo(arena+hblkhd)
        262394 MiB available memory on the node where the printing process lives
------------------
     ethr =  5.70E-05,  avg # of iterations =  3.3

     negative rho (up, down):  0.000E+00 2.733E-02

     total cpu time spent up to now is     7048.9 secs

     total energy              =  -42146.10086571 Ry
     estimated scf accuracy    <       0.90142643 Ry

     total magnetization       =   316.51 Bohr mag/cell
     absolute magnetization    =   336.33 Bohr mag/cell

     iteration #  9     ecut=    90.00 Ry     beta= 0.20
     Davidson diagonalization with overlap

---- Real-time Memory Report at c_bands before calling an iterative solver
          2653 MiB given to the printing process from OS
          1484 MiB allocation reported by mallinfo(arena+hblkhd)
        262282 MiB available memory on the node where the printing process lives
------------------
     ethr =  4.40E-05,  avg # of iterations =  6.0

     negative rho (up, down):  0.000E+00 2.282E-02

     total cpu time spent up to now is     8048.4 secs

     total energy              =  -42146.36467339 Ry
     estimated scf accuracy    <       1.03929682 Ry

     total magnetization       =   295.45 Bohr mag/cell
     absolute magnetization    =   316.26 Bohr mag/cell

     iteration # 10     ecut=    90.00 Ry     beta= 0.20
     Davidson diagonalization with overlap

---- Real-time Memory Report at c_bands before calling an iterative solver
          2657 MiB given to the printing process from OS
          1487 MiB allocation reported by mallinfo(arena+hblkhd)
        262161 MiB available memory on the node where the printing process lives
------------------
     ethr =  4.40E-05,  avg # of iterations =  1.5

     negative rho (up, down):  0.000E+00 2.231E-02

     total cpu time spent up to now is     8792.1 secs

     total energy              =  -42146.32362243 Ry
     estimated scf accuracy    <       0.58166440 Ry

     total magnetization       =   290.47 Bohr mag/cell
     absolute magnetization    =   311.40 Bohr mag/cell

     iteration # 11     ecut=    90.00 Ry     beta= 0.20
     Davidson diagonalization with overlap

---- Real-time Memory Report at c_bands before calling an iterative solver
          2659 MiB given to the printing process from OS
          1487 MiB allocation reported by mallinfo(arena+hblkhd)
        262161 MiB available memory on the node where the printing process lives
------------------
     ethr =  2.84E-05,  avg # of iterations =  1.9

     negative rho (up, down):  0.000E+00 1.720E-02

     total cpu time spent up to now is     9574.0 secs

     total energy              =  -42146.36097364 Ry
     estimated scf accuracy    <       0.31190694 Ry

     total magnetization       =   291.98 Bohr mag/cell
     absolute magnetization    =   312.52 Bohr mag/cell

     iteration # 12     ecut=    90.00 Ry     beta= 0.20
     Davidson diagonalization with overlap

---- Real-time Memory Report at c_bands before calling an iterative solver
          2659 MiB given to the printing process from OS
          1487 MiB allocation reported by mallinfo(arena+hblkhd)
        262149 MiB available memory on the node where the printing process lives
------------------
     ethr =  1.52E-05,  avg # of iterations =  2.7

     negative rho (up, down):  0.000E+00 1.397E-02

     total cpu time spent up to now is    10371.2 secs

     total energy              =  -42146.37962216 Ry
     estimated scf accuracy    <       0.31748151 Ry

     total magnetization       =   292.56 Bohr mag/cell
     absolute magnetization    =   312.62 Bohr mag/cell

     iteration # 13     ecut=    90.00 Ry     beta= 0.20
     Davidson diagonalization with overlap

---- Real-time Memory Report at c_bands before calling an iterative solver
          2659 MiB given to the printing process from OS
          1487 MiB allocation reported by mallinfo(arena+hblkhd)
        262141 MiB available memory on the node where the printing process lives
------------------
     ethr =  1.52E-05,  avg # of iterations =  3.4

     negative rho (up, down):  0.000E+00 9.147E-03

     total cpu time spent up to now is    11278.2 secs

     total energy              =  -42146.40663016 Ry
     estimated scf accuracy    <       0.69489500 Ry

     total magnetization       =   288.57 Bohr mag/cell
     absolute magnetization    =   308.68 Bohr mag/cell

     iteration # 14     ecut=    90.00 Ry     beta= 0.20
     Davidson diagonalization with overlap

---- Real-time Memory Report at c_bands before calling an iterative solver
          2659 MiB given to the printing process from OS
          1487 MiB allocation reported by mallinfo(arena+hblkhd)
        262136 MiB available memory on the node where the printing process lives
------------------
     ethr =  1.52E-05,  avg # of iterations =  3.7

     negative rho (up, down):  0.000E+00 9.265E-03

     total cpu time spent up to now is    12161.0 secs

     total energy              =  -42146.43510025 Ry
     estimated scf accuracy    <       0.08865498 Ry

     total magnetization       =   284.14 Bohr mag/cell
     absolute magnetization    =   303.21 Bohr mag/cell

     iteration # 15     ecut=    90.00 Ry     beta= 0.20
     Davidson diagonalization with overlap

---- Real-time Memory Report at c_bands before calling an iterative solver
          2659 MiB given to the printing process from OS
          1487 MiB allocation reported by mallinfo(arena+hblkhd)
        262122 MiB available memory on the node where the printing process lives
------------------
     ethr =  4.33E-06,  avg # of iterations =  7.4

     negative rho (up, down):  0.000E+00 8.908E-03

     total cpu time spent up to now is    13129.3 secs

     total energy              =  -42146.43758443 Ry
     estimated scf accuracy    <       0.23869862 Ry

     total magnetization       =   284.89 Bohr mag/cell
     absolute magnetization    =   303.76 Bohr mag/cell

     iteration # 16     ecut=    90.00 Ry     beta= 0.20
     Davidson diagonalization with overlap

---- Real-time Memory Report at c_bands before calling an iterative solver
          2659 MiB given to the printing process from OS
          1487 MiB allocation reported by mallinfo(arena+hblkhd)
        262126 MiB available memory on the node where the printing process lives
------------------
     ethr =  4.33E-06,  avg # of iterations =  3.0

     negative rho (up, down):  0.000E+00 8.678E-03

     total cpu time spent up to now is    13931.9 secs

     total energy              =  -42146.45043215 Ry
     estimated scf accuracy    <       0.04879324 Ry

     total magnetization       =   284.09 Bohr mag/cell
     absolute magnetization    =   302.78 Bohr mag/cell

     iteration # 17     ecut=    90.00 Ry     beta= 0.20
     Davidson diagonalization with overlap

---- Real-time Memory Report at c_bands before calling an iterative solver
          2659 MiB given to the printing process from OS
          1487 MiB allocation reported by mallinfo(arena+hblkhd)
        262076 MiB available memory on the node where the printing process lives
------------------
     ethr =  2.38E-06,  avg # of iterations =  3.8

     negative rho (up, down):  0.000E+00 8.018E-03

     total cpu time spent up to now is    14802.0 secs

     total energy              =  -42146.45971834 Ry
     estimated scf accuracy    <       0.06023797 Ry

     total magnetization       =   284.24 Bohr mag/cell
     absolute magnetization    =   302.72 Bohr mag/cell

     iteration # 18     ecut=    90.00 Ry     beta= 0.20
     Davidson diagonalization with overlap

---- Real-time Memory Report at c_bands before calling an iterative solver
          2659 MiB given to the printing process from OS
          1487 MiB allocation reported by mallinfo(arena+hblkhd)
        262066 MiB available memory on the node where the printing process lives
------------------
     ethr =  2.38E-06,  avg # of iterations =  2.2

     negative rho (up, down):  0.000E+00 7.689E-03

     total cpu time spent up to now is    15589.4 secs

     total energy              =  -42146.46876927 Ry
     estimated scf accuracy    <       0.02267313 Ry

     total magnetization       =   283.48 Bohr mag/cell
     absolute magnetization    =   301.62 Bohr mag/cell

     iteration # 19     ecut=    90.00 Ry     beta= 0.20
     Davidson diagonalization with overlap

---- Real-time Memory Report at c_bands before calling an iterative solver
          2659 MiB given to the printing process from OS
          1487 MiB allocation reported by mallinfo(arena+hblkhd)
        262107 MiB available memory on the node where the printing process lives
------------------
     ethr =  1.11E-06,  avg # of iterations =  1.9

     negative rho (up, down):  0.000E+00 7.360E-03

     total cpu time spent up to now is    16386.2 secs

     total energy              =  -42146.47217040 Ry
     estimated scf accuracy    <       0.03849793 Ry

     total magnetization       =   283.84 Bohr mag/cell
     absolute magnetization    =   301.67 Bohr mag/cell

     iteration # 20     ecut=    90.00 Ry     beta= 0.20
     Davidson diagonalization with overlap

---- Real-time Memory Report at c_bands before calling an iterative solver
          2659 MiB given to the printing process from OS
          1487 MiB allocation reported by mallinfo(arena+hblkhd)
        262086 MiB available memory on the node where the printing process lives
------------------
     ethr =  1.11E-06,  avg # of iterations =  1.6

     negative rho (up, down):  0.000E+00 7.226E-03

     total cpu time spent up to now is    17165.8 secs

     total energy              =  -42146.47666944 Ry
     estimated scf accuracy    <       0.01472829 Ry

     total magnetization       =   283.56 Bohr mag/cell
     absolute magnetization    =   301.18 Bohr mag/cell

     iteration # 21     ecut=    90.00 Ry     beta= 0.20
     Davidson diagonalization with overlap

---- Real-time Memory Report at c_bands before calling an iterative solver
          2659 MiB given to the printing process from OS
          1487 MiB allocation reported by mallinfo(arena+hblkhd)
        262071 MiB available memory on the node where the printing process lives
------------------
     ethr =  7.19E-07,  avg # of iterations =  1.9

     negative rho (up, down):  0.000E+00 6.269E-03

     total cpu time spent up to now is    17956.7 secs

     total energy              =  -42146.48217327 Ry
     estimated scf accuracy    <       0.02246147 Ry

     total magnetization       =   284.01 Bohr mag/cell
     absolute magnetization    =   301.44 Bohr mag/cell

     iteration # 22     ecut=    90.00 Ry     beta= 0.20
     Davidson diagonalization with overlap

---- Real-time Memory Report at c_bands before calling an iterative solver
          2659 MiB given to the printing process from OS
          1487 MiB allocation reported by mallinfo(arena+hblkhd)
        262070 MiB available memory on the node where the printing process lives
------------------
     ethr =  7.19E-07,  avg # of iterations =  5.3

     negative rho (up, down):  0.000E+00 6.232E-03

     total cpu time spent up to now is    18831.1 secs

     total energy              =  -42146.48453369 Ry
     estimated scf accuracy    <       0.00725935 Ry

     total magnetization       =   283.70 Bohr mag/cell
     absolute magnetization    =   300.47 Bohr mag/cell

     iteration # 23     ecut=    90.00 Ry     beta= 0.20
     Davidson diagonalization with overlap

---- Real-time Memory Report at c_bands before calling an iterative solver
          2662 MiB given to the printing process from OS
          1487 MiB allocation reported by mallinfo(arena+hblkhd)
        262053 MiB available memory on the node where the printing process lives
------------------
     ethr =  3.54E-07,  avg # of iterations =  2.1

     negative rho (up, down):  0.000E+00 6.230E-03

     total cpu time spent up to now is    19622.9 secs

     total energy              =  -42146.48483625 Ry
     estimated scf accuracy    <       0.00157959 Ry

     total magnetization       =   283.76 Bohr mag/cell
     absolute magnetization    =   300.43 Bohr mag/cell

     iteration # 24     ecut=    90.00 Ry     beta= 0.20
     Davidson diagonalization with overlap

---- Real-time Memory Report at c_bands before calling an iterative solver
          2667 MiB given to the printing process from OS
          1487 MiB allocation reported by mallinfo(arena+hblkhd)
        262083 MiB available memory on the node where the printing process lives
------------------
     ethr =  7.71E-08,  avg # of iterations =  4.8

     negative rho (up, down):  0.000E+00 6.202E-03

     total cpu time spent up to now is    20472.8 secs

     total energy              =  -42146.48498364 Ry
     estimated scf accuracy    <       0.00103951 Ry

     total magnetization       =   283.80 Bohr mag/cell
     absolute magnetization    =   300.38 Bohr mag/cell

     iteration # 25     ecut=    90.00 Ry     beta= 0.20
     Davidson diagonalization with overlap

---- Real-time Memory Report at c_bands before calling an iterative solver
          2667 MiB given to the printing process from OS
          1487 MiB allocation reported by mallinfo(arena+hblkhd)
        262121 MiB available memory on the node where the printing process lives
------------------
     ethr =  5.08E-08,  avg # of iterations =  2.0

     negative rho (up, down):  0.000E+00 6.236E-03

     total cpu time spent up to now is    21271.9 secs

     total energy              =  -42146.48507692 Ry
     estimated scf accuracy    <       0.00105151 Ry

     total magnetization       =   283.82 Bohr mag/cell
     absolute magnetization    =   300.34 Bohr mag/cell

     iteration # 26     ecut=    90.00 Ry     beta= 0.20
     Davidson diagonalization with overlap

---- Real-time Memory Report at c_bands before calling an iterative solver
          2667 MiB given to the printing process from OS
          1487 MiB allocation reported by mallinfo(arena+hblkhd)
        262043 MiB available memory on the node where the printing process lives
------------------
     ethr =  5.08E-08,  avg # of iterations =  1.6

     negative rho (up, down):  0.000E+00 6.208E-03

     total cpu time spent up to now is    22053.8 secs

     total energy              =  -42146.48506595 Ry
     estimated scf accuracy    <       0.00160279 Ry

     total magnetization       =   283.90 Bohr mag/cell
     absolute magnetization    =   300.34 Bohr mag/cell

     iteration # 27     ecut=    90.00 Ry     beta= 0.20
     Davidson diagonalization with overlap

---- Real-time Memory Report at c_bands before calling an iterative solver
          2667 MiB given to the printing process from OS
          1487 MiB allocation reported by mallinfo(arena+hblkhd)
        262028 MiB available memory on the node where the printing process lives
------------------
     ethr =  5.08E-08,  avg # of iterations =  1.6

     negative rho (up, down):  0.000E+00 6.212E-03

     total cpu time spent up to now is    22843.7 secs

     total energy              =  -42146.48509765 Ry
     estimated scf accuracy    <       0.00122550 Ry

     total magnetization       =   283.89 Bohr mag/cell
     absolute magnetization    =   300.31 Bohr mag/cell

     iteration # 28     ecut=    90.00 Ry     beta= 0.20
     Davidson diagonalization with overlap

---- Real-time Memory Report at c_bands before calling an iterative solver
          2667 MiB given to the printing process from OS
          1487 MiB allocation reported by mallinfo(arena+hblkhd)
        262026 MiB available memory on the node where the printing process lives
------------------
     ethr =  5.08E-08,  avg # of iterations =  1.1

     negative rho (up, down):  0.000E+00 6.264E-03

     total cpu time spent up to now is    23554.4 secs

     total energy              =  -42146.48512655 Ry
     estimated scf accuracy    <       0.00107242 Ry

     total magnetization       =   283.90 Bohr mag/cell
     absolute magnetization    =   300.30 Bohr mag/cell

     iteration # 29     ecut=    90.00 Ry     beta= 0.20
     Davidson diagonalization with overlap

---- Real-time Memory Report at c_bands before calling an iterative solver
          2667 MiB given to the printing process from OS
          1487 MiB allocation reported by mallinfo(arena+hblkhd)
        262040 MiB available memory on the node where the printing process lives
------------------
     ethr =  5.08E-08,  avg # of iterations =  1.0

     negative rho (up, down):  0.000E+00 6.255E-03

     total cpu time spent up to now is    24254.2 secs

     total energy              =  -42146.48517767 Ry
     estimated scf accuracy    <       0.00006913 Ry

     total magnetization       =   283.95 Bohr mag/cell
     absolute magnetization    =   300.33 Bohr mag/cell

     iteration # 30     ecut=    90.00 Ry     beta= 0.20
     Davidson diagonalization with overlap

---- Real-time Memory Report at c_bands before calling an iterative solver
          2667 MiB given to the printing process from OS
          1487 MiB allocation reported by mallinfo(arena+hblkhd)
        262035 MiB available memory on the node where the printing process lives
------------------
     ethr =  3.38E-09,  avg # of iterations =  3.4

     negative rho (up, down):  0.000E+00 6.288E-03

     total cpu time spent up to now is    25104.3 secs

     total energy              =  -42146.48517830 Ry
     estimated scf accuracy    <       0.00009903 Ry

     total magnetization       =   283.95 Bohr mag/cell
     absolute magnetization    =   300.29 Bohr mag/cell

     iteration # 31     ecut=    90.00 Ry     beta= 0.20
     Davidson diagonalization with overlap

---- Real-time Memory Report at c_bands before calling an iterative solver
          2667 MiB given to the printing process from OS
          1487 MiB allocation reported by mallinfo(arena+hblkhd)
        262028 MiB available memory on the node where the printing process lives
------------------
     ethr =  3.38E-09,  avg # of iterations =  1.1

     negative rho (up, down):  0.000E+00 6.270E-03

     total cpu time spent up to now is    25825.8 secs

     total energy              =  -42146.48518122 Ry
     estimated scf accuracy    <       0.00008205 Ry

     total magnetization       =   283.95 Bohr mag/cell
     absolute magnetization    =   300.29 Bohr mag/cell

     iteration # 32     ecut=    90.00 Ry     beta= 0.20
     Davidson diagonalization with overlap

---- Real-time Memory Report at c_bands before calling an iterative solver
          2667 MiB given to the printing process from OS
          1487 MiB allocation reported by mallinfo(arena+hblkhd)
        262025 MiB available memory on the node where the printing process lives
------------------
     ethr =  3.38E-09,  avg # of iterations =  1.1

     negative rho (up, down):  0.000E+00 6.275E-03

     total cpu time spent up to now is    26526.5 secs

     total energy              =  -42146.48518744 Ry
     estimated scf accuracy    <       0.00004975 Ry

     total magnetization       =   283.95 Bohr mag/cell
     absolute magnetization    =   300.29 Bohr mag/cell

     iteration # 33     ecut=    90.00 Ry     beta= 0.20
     Davidson diagonalization with overlap

---- Real-time Memory Report at c_bands before calling an iterative solver
          2667 MiB given to the printing process from OS
          1487 MiB allocation reported by mallinfo(arena+hblkhd)
        262018 MiB available memory on the node where the printing process lives
------------------
     ethr =  2.43E-09,  avg # of iterations =  1.1

     negative rho (up, down):  0.000E+00 6.281E-03

     total cpu time spent up to now is    27226.2 secs

     total energy              =  -42146.48519109 Ry
     estimated scf accuracy    <       0.00006303 Ry

     total magnetization       =   283.95 Bohr mag/cell
     absolute magnetization    =   300.28 Bohr mag/cell

     iteration # 34     ecut=    90.00 Ry     beta= 0.20
     Davidson diagonalization with overlap

---- Real-time Memory Report at c_bands before calling an iterative solver
          2667 MiB given to the printing process from OS
          1487 MiB allocation reported by mallinfo(arena+hblkhd)
        262016 MiB available memory on the node where the printing process lives
------------------
     ethr =  2.43E-09,  avg # of iterations =  1.0

     negative rho (up, down):  0.000E+00 6.284E-03

     total cpu time spent up to now is    27919.5 secs

     total energy              =  -42146.48519408 Ry
     estimated scf accuracy    <       0.00000985 Ry

     total magnetization       =   283.95 Bohr mag/cell
     absolute magnetization    =   300.27 Bohr mag/cell

     iteration # 35     ecut=    90.00 Ry     beta= 0.20
     Davidson diagonalization with overlap

---- Real-time Memory Report at c_bands before calling an iterative solver
          2667 MiB given to the printing process from OS
          1487 MiB allocation reported by mallinfo(arena+hblkhd)
        262014 MiB available memory on the node where the printing process lives
------------------
     ethr =  4.81E-10,  avg # of iterations =  1.9

     negative rho (up, down):  0.000E+00 6.289E-03

     total cpu time spent up to now is    28714.2 secs

     total energy              =  -42146.48519766 Ry
     estimated scf accuracy    <       0.00000866 Ry

     total magnetization       =   283.94 Bohr mag/cell
     absolute magnetization    =   300.26 Bohr mag/cell

     iteration # 36     ecut=    90.00 Ry     beta= 0.20
     Davidson diagonalization with overlap

---- Real-time Memory Report at c_bands before calling an iterative solver
          2667 MiB given to the printing process from OS
          1487 MiB allocation reported by mallinfo(arena+hblkhd)
        262004 MiB available memory on the node where the printing process lives
------------------
     ethr =  4.23E-10,  avg # of iterations =  2.9

     negative rho (up, down):  0.000E+00 6.290E-03

     total cpu time spent up to now is    29552.8 secs

     total energy              =  -42146.48519865 Ry
     estimated scf accuracy    <       0.00001059 Ry

     total magnetization       =   283.93 Bohr mag/cell
     absolute magnetization    =   300.23 Bohr mag/cell

     iteration # 37     ecut=    90.00 Ry     beta= 0.20
     Davidson diagonalization with overlap

---- Real-time Memory Report at c_bands before calling an iterative solver
          2667 MiB given to the printing process from OS
          1487 MiB allocation reported by mallinfo(arena+hblkhd)
        261992 MiB available memory on the node where the printing process lives
------------------
     ethr =  4.23E-10,  avg # of iterations =  2.0

     negative rho (up, down):  0.000E+00 6.292E-03

     total cpu time spent up to now is    30341.4 secs

     total energy              =  -42146.48519965 Ry
     estimated scf accuracy    <       0.00001509 Ry

     total magnetization       =   283.93 Bohr mag/cell
     absolute magnetization    =   300.23 Bohr mag/cell

     iteration # 38     ecut=    90.00 Ry     beta= 0.20
     Davidson diagonalization with overlap

---- Real-time Memory Report at c_bands before calling an iterative solver
          2667 MiB given to the printing process from OS
          1487 MiB allocation reported by mallinfo(arena+hblkhd)
        261983 MiB available memory on the node where the printing process lives
------------------
     ethr =  4.23E-10,  avg # of iterations =  2.0

     negative rho (up, down):  0.000E+00 6.294E-03

     total cpu time spent up to now is    31132.4 secs

     total energy              =  -42146.48520070 Ry
     estimated scf accuracy    <       0.00001904 Ry

     total magnetization       =   283.92 Bohr mag/cell
     absolute magnetization    =   300.21 Bohr mag/cell

     iteration # 39     ecut=    90.00 Ry     beta= 0.20
     Davidson diagonalization with overlap

---- Real-time Memory Report at c_bands before calling an iterative solver
          2667 MiB given to the printing process from OS
          1487 MiB allocation reported by mallinfo(arena+hblkhd)
        261972 MiB available memory on the node where the printing process lives
------------------
     ethr =  4.23E-10,  avg # of iterations =  1.8

     negative rho (up, down):  0.000E+00 6.295E-03

     total cpu time spent up to now is    31910.6 secs

     total energy              =  -42146.48520241 Ry
     estimated scf accuracy    <       0.00000476 Ry

     total magnetization       =   283.92 Bohr mag/cell
     absolute magnetization    =   300.20 Bohr mag/cell

     iteration # 40     ecut=    90.00 Ry     beta= 0.20
     Davidson diagonalization with overlap

---- Real-time Memory Report at c_bands before calling an iterative solver
          2667 MiB given to the printing process from OS
          1487 MiB allocation reported by mallinfo(arena+hblkhd)
        261978 MiB available memory on the node where the printing process lives
------------------
     ethr =  2.33E-10,  avg # of iterations =  3.2

     negative rho (up, down):  0.000E+00 6.296E-03

     total cpu time spent up to now is    32755.7 secs

     total energy              =  -42146.48520305 Ry
     estimated scf accuracy    <       0.00000364 Ry

     total magnetization       =   283.90 Bohr mag/cell
     absolute magnetization    =   300.18 Bohr mag/cell

     iteration # 41     ecut=    90.00 Ry     beta= 0.20
     Davidson diagonalization with overlap

---- Real-time Memory Report at c_bands before calling an iterative solver
          2667 MiB given to the printing process from OS
          1487 MiB allocation reported by mallinfo(arena+hblkhd)
        261960 MiB available memory on the node where the printing process lives
------------------
     ethr =  1.78E-10,  avg # of iterations =  3.1

[...]
     atom   86 type  1   force =     0.00000000    0.00000000    0.00000000
     atom   87 type  1   force =     0.00000000    0.00000000    0.00000000
     atom   88 type  1   force =     0.00000000    0.00000000    0.00000000
     atom   89 type  1   force =     0.00000000    0.00000000    0.00000000
     atom   90 type  1   force =     0.00000000    0.00000000    0.00000000
     atom   91 type  1   force =     0.00000000    0.00000000    0.00000000
     atom   92 type  1   force =     0.00000000    0.00000000    0.00000000
     atom   93 type  1   force =     0.00000000    0.00000000    0.00000000
     atom   94 type  1   force =     0.00000000    0.00000000    0.00000000
     atom   95 type  1   force =     0.00000000    0.00000000    0.00000000
     atom   96 type  1   force =     0.00000000    0.00000000    0.00000000
     atom   97 type  1   force =     0.00000000    0.00000000    0.00000000
     atom   98 type  1   force =     0.00000000    0.00000000    0.00000000
     atom   99 type  1   force =     0.00000000    0.00000000    0.00000000
     atom  100 type  1   force =     0.00000000    0.00000000    0.00000000
     atom  101 type  1   force =     0.00000000    0.00000000    0.00000000
     atom  102 type  1   force =     0.00000000    0.00000000    0.00000000
     atom  103 type  1   force =     0.00000000    0.00000000    0.00000000
     atom  104 type  1   force =     0.00000000    0.00000000    0.00000000
     atom  105 type  1   force =     0.00000000    0.00000000    0.00000000
     atom  106 type  1   force =     0.00000000    0.00000000    0.00000000
     atom  107 type  1   force =     0.00000000    0.00000000    0.00000000
     atom  108 type  1   force =     0.00000000    0.00000000    0.00000000
     atom  109 type  1   force =     0.00000000    0.00000000    0.00000000
     atom  110 type  1   force =     0.00000000    0.00000000    0.00000000
     atom  111 type  1   force =     0.00000000    0.00000000    0.00000000
     atom  112 type  1   force =     0.00000000    0.00000000    0.00000000
     atom  113 type  1   force =     0.00000000    0.00000000    0.00000000
     atom  114 type  1   force =     0.00000000    0.00000000    0.00000000
     atom  115 type  1   force =     0.00000000    0.00000000    0.00000000
     atom  116 type  1   force =     0.00000000    0.00000000    0.00000000
     atom  117 type  1   force =     0.00000000    0.00000000    0.00000000
     atom  118 type  1   force =     0.00000000    0.00000000    0.00000000
     atom  119 type  1   force =     0.00000000    0.00000000    0.00000000
     atom  120 type  1   force =     0.00000000    0.00000000    0.00000000
     atom  121 type  1   force =     0.00000000    0.00000000    0.00000000
     atom  122 type  1   force =     0.00000000    0.00000000    0.00000000
     atom  123 type  1   force =     0.00000000    0.00000000    0.00000000
     atom  124 type  1   force =     0.00000000    0.00000000    0.00000000
     atom  125 type  1   force =     0.00000000    0.00000000    0.00000000
     atom  126 type  1   force =     0.00000000    0.00000000    0.00000000
     atom  127 type  1   force =     0.00000000    0.00000000    0.00000000
     atom  128 type  1   force =     0.00000000    0.00000000    0.00000000
     The SCF correction term to forces
     atom    1 type  1   force =     0.00000000   -0.00000000   -0.00000000
     atom    2 type  1   force =    -0.00005067   -0.00005067   -0.00005067
     atom    3 type  1   force =     0.00000000    0.00000000   -0.00009160
     atom    4 type  1   force =    -0.00004570   -0.00004570   -0.00009841
     atom    5 type  1   force =    -0.00000000   -0.00000000    0.00000000
     atom    6 type  1   force =    -0.00004570   -0.00004570    0.00009841
     atom    7 type  1   force =     0.00000000    0.00000000    0.00009160
     atom    8 type  1   force =    -0.00005067   -0.00005067    0.00005067
     atom    9 type  1   force =     0.00000000   -0.00009160   -0.00000000
     atom   10 type  1   force =    -0.00004570   -0.00009841   -0.00004570
     atom   11 type  1   force =    -0.00000000   -0.00009228   -0.00009228
     atom   12 type  1   force =    -0.00004419   -0.00013525   -0.00013525
     atom   13 type  1   force =    -0.00000000   -0.00013555    0.00000000
     atom   14 type  1   force =    -0.00004419   -0.00013525    0.00013525
     atom   15 type  1   force =     0.00000000   -0.00009228    0.00009228
     atom   16 type  1   force =    -0.00004570   -0.00009841    0.00004570
     atom   17 type  1   force =     0.00000000   -0.00000000   -0.00000000
     atom   18 type  1   force =    -0.00004570    0.00009841   -0.00004570
     atom   19 type  1   force =    -0.00000000    0.00000000   -0.00013555
     atom   20 type  1   force =    -0.00004419    0.00013525   -0.00013525
     atom   21 type  1   force =    -0.00000000   -0.00000000    0.00000000
     atom   22 type  1   force =    -0.00004419    0.00013525    0.00013525
     atom   23 type  1   force =     0.00000000    0.00000000    0.00013555
     atom   24 type  1   force =    -0.00004570    0.00009841    0.00004570
     atom   25 type  1   force =    -0.00000000    0.00009160   -0.00000000
     atom   26 type  1   force =    -0.00005067    0.00005067   -0.00005067
     atom   27 type  1   force =    -0.00000000    0.00009228   -0.00009228
     atom   28 type  1   force =    -0.00004570    0.00004570   -0.00009841
     atom   29 type  1   force =    -0.00000000    0.00013555    0.00000000
     atom   30 type  1   force =    -0.00004570    0.00004570    0.00009841
     atom   31 type  1   force =    -0.00000000    0.00009228    0.00009228
     atom   32 type  1   force =    -0.00005067    0.00005067    0.00005067
     atom   33 type  1   force =    -0.00009160    0.00000000   -0.00000000
     atom   34 type  1   force =    -0.00009841   -0.00004570   -0.00004570
     atom   35 type  1   force =    -0.00009228    0.00000000   -0.00009228
     atom   36 type  1   force =    -0.00013525   -0.00004419   -0.00013525
     atom   37 type  1   force =    -0.00013555    0.00000000    0.00000000
     atom   38 type  1   force =    -0.00013525   -0.00004419    0.00013525
     atom   39 type  1   force =    -0.00009228    0.00000000    0.00009228
     atom   40 type  1   force =    -0.00009841   -0.00004570    0.00004570
     atom   41 type  1   force =    -0.00009228   -0.00009228    0.00000000
     atom   42 type  1   force =    -0.00013525   -0.00013525   -0.00004419
     atom   43 type  1   force =    -0.00010447   -0.00010447   -0.00010447
     atom   44 type  1   force =    -0.00004864   -0.00004864   -0.00004864
     atom   45 type  1   force =    -0.00010171   -0.00010171    0.00000000
     atom   46 type  1   force =    -0.00004864   -0.00004864    0.00004864
     atom   47 type  1   force =    -0.00010447   -0.00010447    0.00010447
     atom   48 type  1   force =    -0.00013525   -0.00013525    0.00004419
     atom   49 type  1   force =    -0.00013555    0.00000000   -0.00000000
     atom   50 type  1   force =    -0.00013525    0.00013525   -0.00004419
     atom   51 type  1   force =    -0.00010171    0.00000000   -0.00010171
     atom   52 type  1   force =    -0.00004864    0.00004864   -0.00004864
     atom   53 type  1   force =     0.00000278    0.00000000    0.00000000
     atom   54 type  1   force =    -0.00004864    0.00004864    0.00004864
     atom   55 type  1   force =    -0.00010171    0.00000000    0.00010171
     atom   56 type  1   force =    -0.00013525    0.00013525    0.00004419
     atom   57 type  1   force =    -0.00009228    0.00009228   -0.00000000
     atom   58 type  1   force =    -0.00009841    0.00004570   -0.00004570
     atom   59 type  1   force =    -0.00010447    0.00010447   -0.00010447
     atom   60 type  1   force =    -0.00013525    0.00004419   -0.00013525
     atom   61 type  1   force =    -0.00010171    0.00010171    0.00000000
     atom   62 type  1   force =    -0.00013525    0.00004419    0.00013525
     atom   63 type  1   force =    -0.00010447    0.00010447    0.00010447
     atom   64 type  1   force =    -0.00009841    0.00004570    0.00004570
     atom   65 type  1   force =     0.00000000   -0.00000000   -0.00000000
     atom   66 type  1   force =     0.00009841   -0.00004570   -0.00004570
     atom   67 type  1   force =    -0.00000000    0.00000000   -0.00013555
     atom   68 type  1   force =     0.00013525   -0.00004419   -0.00013525
     atom   69 type  1   force =    -0.00000000   -0.00000000    0.00000000
     atom   70 type  1   force =     0.00013525   -0.00004419    0.00013525
     atom   71 type  1   force =     0.00000000    0.00000000    0.00013555
     atom   72 type  1   force =     0.00009841   -0.00004570    0.00004570
     atom   73 type  1   force =     0.00000000   -0.00013555   -0.00000000
     atom   74 type  1   force =     0.00013525   -0.00013525   -0.00004419
     atom   75 type  1   force =    -0.00000000   -0.00010171   -0.00010171
     atom   76 type  1   force =     0.00004864   -0.00004864   -0.00004864
     atom   77 type  1   force =    -0.00000000    0.00000278    0.00000000
     atom   78 type  1   force =     0.00004864   -0.00004864    0.00004864
     atom   79 type  1   force =     0.00000000   -0.00010171    0.00010171
     atom   80 type  1   force =     0.00013525   -0.00013525    0.00004419
     atom   81 type  1   force =     0.00000000   -0.00000000   -0.00000000
     atom   82 type  1   force =     0.00013525    0.00013525   -0.00004419
     atom   83 type  1   force =    -0.00000000    0.00000000    0.00000278
     atom   84 type  1   force =     0.00004864    0.00004864   -0.00004864
     atom   85 type  1   force =    -0.00000000   -0.00000000    0.00000000
     atom   86 type  1   force =     0.00004864    0.00004864    0.00004864
     atom   87 type  1   force =     0.00000000    0.00000000   -0.00000278
     atom   88 type  1   force =     0.00013525    0.00013525    0.00004419
     atom   89 type  1   force =     0.00000000    0.00013555   -0.00000000
     atom   90 type  1   force =     0.00009841    0.00004570   -0.00004570
     atom   91 type  1   force =    -0.00000000    0.00010171   -0.00010171
     atom   92 type  1   force =     0.00013525    0.00004419   -0.00013525
     atom   93 type  1   force =    -0.00000000   -0.00000278    0.00000000
     atom   94 type  1   force =     0.00013525    0.00004419    0.00013525
     atom   95 type  1   force =     0.00000000    0.00010171    0.00010171
     atom   96 type  1   force =     0.00009841    0.00004570    0.00004570
     atom   97 type  1   force =     0.00009160    0.00000000   -0.00000000
     atom   98 type  1   force =     0.00005067   -0.00005067   -0.00005067
     atom   99 type  1   force =     0.00009228    0.00000000   -0.00009228
     atom  100 type  1   force =     0.00004570   -0.00004570   -0.00009841
     atom  101 type  1   force =     0.00013555    0.00000000    0.00000000
     atom  102 type  1   force =     0.00004570   -0.00004570    0.00009841
     atom  103 type  1   force =     0.00009228    0.00000000    0.00009228
     atom  104 type  1   force =     0.00005067   -0.00005067    0.00005067
     atom  105 type  1   force =     0.00009228   -0.00009228   -0.00000000
     atom  106 type  1   force =     0.00004570   -0.00009841   -0.00004570
     atom  107 type  1   force =     0.00010447   -0.00010447   -0.00010447
     atom  108 type  1   force =     0.00004419   -0.00013525   -0.00013525
     atom  109 type  1   force =     0.00010171   -0.00010171    0.00000000
     atom  110 type  1   force =     0.00004419   -0.00013525    0.00013525
     atom  111 type  1   force =     0.00010447   -0.00010447    0.00010447
     atom  112 type  1   force =     0.00004570   -0.00009841    0.00004570
     atom  113 type  1   force =     0.00013555    0.00000000   -0.00000000
     atom  114 type  1   force =     0.00004570    0.00009841   -0.00004570
     atom  115 type  1   force =     0.00010171    0.00000000   -0.00010171
     atom  116 type  1   force =     0.00004419    0.00013525   -0.00013525
     atom  117 type  1   force =    -0.00000278    0.00000000    0.00000000
     atom  118 type  1   force =     0.00004419    0.00013525    0.00013525
     atom  119 type  1   force =     0.00010171    0.00000000    0.00010171
     atom  120 type  1   force =     0.00004570    0.00009841    0.00004570
     atom  121 type  1   force =     0.00009228    0.00009228   -0.00000000
     atom  122 type  1   force =     0.00005067    0.00005067   -0.00005067
     atom  123 type  1   force =     0.00010447    0.00010447   -0.00010447
     atom  124 type  1   force =     0.00004570    0.00004570   -0.00009841
     atom  125 type  1   force =     0.00010171    0.00010171    0.00000000
     atom  126 type  1   force =     0.00004570    0.00004570    0.00009841
     atom  127 type  1   force =     0.00010447    0.00010447    0.00010447
     atom  128 type  1   force =     0.00005067    0.00005067    0.00005067

     Total force =     0.000086     Total SCF correction =     0.001537
     SCF correction compared to forces is large: reduce conv_thr to get better values


     Computing stress (Cartesian axis) and pressure


     negative rho (up, down):  0.000E+00 6.279E-03
          total   stress  (Ry/bohr**3)                   (kbar)     P=      -72.29
  -0.00049144   0.00000000   0.00000000          -72.29        0.00        0.00
   0.00000000  -0.00049144   0.00000000            0.00      -72.29        0.00
   0.00000000   0.00000000  -0.00049144            0.00        0.00      -72.29

     kinetic stress (kbar)  95423.77      0.00      0.00
                                0.00  95423.77      0.00
                                0.00      0.00  95423.77

     local   stress (kbar)  12108.12      0.00      0.00
                                0.00  12108.12     -0.00
                                0.00     -0.00  12108.12

     nonloc. stress (kbar) -26162.29      0.00      0.00
                                0.00 -26162.29      0.00
                                0.00      0.00 -26162.29

     hartree stress (kbar)  40797.56      0.00     -0.00
                                0.00  40797.56     -0.00
                               -0.00     -0.00  40797.56

     exc-cor stress (kbar) -13739.69     -0.00     -0.00
                               -0.00 -13739.69     -0.00
                               -0.00     -0.00 -13739.69

     corecor stress (kbar)  -2619.82      0.00      0.00
                                0.00  -2619.82     -0.00
                                0.00     -0.00  -2619.82

     ewald   stress (kbar)-105879.93     -0.00      0.00
                               -0.00-105879.93     -0.00
                                0.00     -0.00-105879.93

     hubbard stress (kbar)      0.00      0.00      0.00
                                0.00      0.00      0.00
                                0.00      0.00      0.00

     DFT-D   stress (kbar)      0.00      0.00      0.00
                                0.00      0.00      0.00
                                0.00      0.00      0.00

     XDM     stress (kbar)      0.00      0.00      0.00
                                0.00      0.00      0.00
                                0.00      0.00      0.00

     dft-nl  stress (kbar)      0.00      0.00      0.00
                                0.00      0.00      0.00
                                0.00      0.00      0.00

     TS-vdW  stress (kbar)      0.00      0.00      0.00
                                0.00      0.00      0.00
                                0.00      0.00      0.00

     MDB     stress (kbar)      0.00      0.00      0.00
                                0.00      0.00      0.00
                                0.00      0.00      0.00

     3D-RISM stress (kbar)      0.00      0.00      0.00
                                0.00      0.00      0.00
                                0.00      0.00      0.00

     Message from routine punch:
     Nothing written, as per user request (disk_io='none')

     init_run     :    251.89s CPU    263.95s WALL (       1 calls)
     electrons    :  41293.68s CPU  43313.61s WALL (       1 calls)
     forces       :    156.69s CPU    162.84s WALL (       1 calls)
     stress       :   3767.25s CPU   3872.35s WALL (       1 calls)

     Called by init_run:
     wfcinit      :    233.45s CPU    243.17s WALL (       1 calls)
     wfcinit:atom :      0.31s CPU      0.61s WALL (      10 calls)
     wfcinit:wfcr :    228.76s CPU    237.61s WALL (      10 calls)
     potinit      :      2.08s CPU      2.39s WALL (       1 calls)
     hinit0       :      2.41s CPU      2.50s WALL (       1 calls)

     Called by electrons:
     c_bands      :  35785.26s CPU  37561.95s WALL (      54 calls)
     sum_band     :   5359.44s CPU   5575.80s WALL (      54 calls)
     v_of_rho     :     72.07s CPU     84.04s WALL (      55 calls)
     v_h          :      2.49s CPU      2.84s WALL (      55 calls)
     v_xc         :     72.06s CPU     84.06s WALL (      57 calls)
     newd         :     40.44s CPU     51.20s WALL (      55 calls)
     PAW_pot      :     24.01s CPU     25.46s WALL (      55 calls)
     mix_rho      :      4.58s CPU      5.71s WALL (      54 calls)

     Called by c_bands:
     init_us_2    :    249.57s CPU    254.16s WALL (    1110 calls)
     cegterg      :  33733.90s CPU  35210.83s WALL (     540 calls)

     Called by sum_band:
     sum_band:wei :      0.88s CPU      1.01s WALL (      54 calls)
     sum_band:loo :   5167.81s CPU   5345.45s WALL (      54 calls)
     sum_band:buf :     42.61s CPU     43.37s WALL (     540 calls)
     sum_band:ini :     93.11s CPU     94.29s WALL (     540 calls)
     sum_band:cal :   1892.58s CPU   1968.90s WALL (     540 calls)
     sum_band:bec :     29.39s CPU     29.77s WALL (     540 calls)
     addusdens    :     40.79s CPU     51.80s WALL (      54 calls)
                                        0.00s GPU  (      54 calls)
     addusd:skk   :      1.36s CPU      5.39s WALL (      54 calls)
                                        0.00s GPU  (      54 calls)

     Called by *egterg:
     cdiaghg      :   1787.01s CPU   1972.83s WALL (    1910 calls)
     cegterg:over :   3551.23s CPU   3661.06s WALL (    1370 calls)
     cegterg:upda :   2100.74s CPU   2192.42s WALL (    1370 calls)
     cegterg:last :   5388.52s CPU   5605.59s WALL (     925 calls)
     cdiaghg:chol :    144.92s CPU    166.56s WALL (    1910 calls)
     cdiaghg:inve :    168.27s CPU    198.30s WALL (    1910 calls)
     cdiaghg:para :    401.34s CPU    454.71s WALL (    3820 calls)
     h_psi        :  16007.79s CPU  16583.24s WALL (    1920 calls)
     s_psi        :   3607.81s CPU   3678.75s WALL (    1920 calls)
     g_psi        :     24.28s CPU     24.61s WALL (    1370 calls)

     Called by h_psi:
     h_psi:calbec :   3959.50s CPU   4102.05s WALL (    1920 calls)
     vloc_psi     :   8399.50s CPU   8654.92s WALL (    1920 calls)
     add_vuspsi   :   3600.10s CPU   3686.30s WALL (    1920 calls)

     General routines
     calbec       :   6275.30s CPU   6540.03s WALL (    2510 calls)
     fft          :     42.31s CPU     51.90s WALL (    1413 calls)
     ffts         :      1.37s CPU      1.93s WALL (     218 calls)
     fftw         :   5435.82s CPU   5699.02s WALL ( 3386012 calls)
     interpolate  :      5.02s CPU      6.02s WALL (     110 calls)

     Parallel routines

     PAW routines
     PAW_pot      :     24.01s CPU     25.46s WALL (      55 calls)
     PAW_symme    :      0.96s CPU      1.24s WALL (     109 calls)

     PWSCF        :  45471.09s CPU  47615.61s WALL


   This run was terminated on:  13:39:40  24May2025            

=------------------------------------------------------------------------------=
   JOB DONE.
=------------------------------------------------------------------------------=
