
     Program PWSCF v.7.3.1 starts on  1Jun2025 at 13:25: 0 

     This program is part of the open-source Quantum ESPRESSO suite
     for quantum simulation of materials; please cite
         "P. Giannozzi et al., J. Phys.:Condens. Matter 21 395502 (2009);
         "P. Giannozzi et al., J. Phys.:Condens. Matter 29 465901 (2017);
         "P. Giannozzi et al., J. Chem. Phys. 152 154105 (2020);
          URL http://www.quantum-espresso.org", 
     in publications or presentations arising from this work. More details at
     http://www.quantum-espresso.org/quote

     Parallel version (MPI & OpenMP), running on     128 processor cores
     Number of MPI processes:               128
     Threads/MPI process:                     1

     MPI processes distributed on     1 nodes
     440728 MiB available memory on the printing compute node when the environment starts

     Waiting for input...
     Reading input from standard input

     Current dimensions of program PWSCF are:
     Max number of different atomic species (ntypx) = 10
     Max number of k-points (npk) =  40000
     Max angular momentum in pseudopotentials (lmaxx) =  4
     file Fe.pbe-spn-kjpaw_psl.1.0.0.UPF: wavefunction(s)  3P 3D renormalized
     Found identity + (  0.1667  0.1667  0.1667) symmetry
     This is a supercell, fractional translations are disabled
     Message from routine setup:
     using ibrav=0 with symmetry is DISCOURAGED, use correct ibrav instead

     K-points division:     npool     =       8
     R & G space division:  proc/nbgrp/npool/nimage =      16
     Subspace diagonalization in iterative solution of the eigenvalue problem:
     one sub-group per band group will be used
     ELPA distributed-memory algorithm (size of sub-group:  4*  4 procs)


     Parallelization info
     --------------------
     sticks:   dense  smooth     PW     G-vecs:    dense   smooth      PW
     Min        1420     473    126               161001    30976    4292
     Max        1422     475    127               161002    30980    4295
     Sum       22725    7589   2025              2576031   495639   68699

     Using Slab Decomposition



     bravais-lattice index     =            0
     lattice parameter (alat)  =      16.2598  a.u.
     unit-cell volume          =    4298.7603 (a.u.)^3
     number of atoms/cell      =           54
     number of atomic types    =            1
     number of electrons       =       864.00
     number of Kohn-Sham states=          518
     kinetic-energy cutoff     =      90.0000  Ry
     charge density cutoff     =    1080.0000  Ry
     scf convergence threshold =      1.0E-08
     mixing beta               =       0.2000
     number of iterations used =            8  plain     mixing
     energy convergence thresh.=      1.0E-04
     force convergence thresh. =      1.0E-03
     Exchange-correlation= SLA  PW   PBX  PBC
                           (   1   4   3   4   0   0   0)
     nstep                     =           50


     celldm(1)=  16.259770  celldm(2)=   0.000000  celldm(3)=   0.000000
     celldm(4)=   0.000000  celldm(5)=   0.000000  celldm(6)=   0.000000

     crystal axes: (cart. coord. in units of alat)
               a(1) = (   1.000000   0.000000   0.000000 )  
               a(2) = (   0.000000   1.000000   0.000000 )  
               a(3) = (   0.000000   0.000000   1.000000 )  

     reciprocal axes: (cart. coord. in units 2 pi/alat)
               b(1) = (  1.000000  0.000000  0.000000 )  
               b(2) = (  0.000000  1.000000  0.000000 )  
               b(3) = (  0.000000  0.000000  1.000000 )  


     PseudoPot. # 1 for Fe read from file:
     ./pseudo/Fe.pbe-spn-kjpaw_psl.1.0.0.UPF
     MD5 check sum: fc81f059e5c5069939230b1155715ae8
     Pseudo is Projector augmented-wave + core cor, Zval = 16.0
     Generated using &quot;atomic&quot; code by A. Dal Corso  v.6.3
     Shape of augmentation charge: PSQ
     Using radial grid of 1191 points,  6 beta functions with: 
                l(1) =   0
                l(2) =   0
                l(3) =   1
                l(4) =   1
                l(5) =   2
                l(6) =   2
     Q(r) pseudized with 0 coefficients 


     atomic species   valence    mass     pseudopotential
     Fe               16.00    55.84500     Fe( 1.00)

     Starting magnetic structure 
     atomic species   magnetization
     Fe              0.400

     48 Sym. Ops., with inversion, found


                                    s                        frac. trans.

      isym =  1     identity                                     

 cryst.   s( 1) = (     1          0          0      )
                  (     0          1          0      )
                  (     0          0          1      )

 cart.    s( 1) = (  1.0000000  0.0000000  0.0000000 )
                  (  0.0000000  1.0000000  0.0000000 )
                  (  0.0000000  0.0000000  1.0000000 )


      isym =  2     180 deg rotation - cart. axis [0,0,1]        

 cryst.   s( 2) = (    -1          0          0      )
                  (     0         -1          0      )
                  (     0          0          1      )

 cart.    s( 2) = ( -1.0000000  0.0000000  0.0000000 )
                  (  0.0000000 -1.0000000  0.0000000 )
                  (  0.0000000  0.0000000  1.0000000 )


      isym =  3     180 deg rotation - cart. axis [0,1,0]        

 cryst.   s( 3) = (    -1          0          0      )
                  (     0          1          0      )
                  (     0          0         -1      )

 cart.    s( 3) = ( -1.0000000  0.0000000  0.0000000 )
                  (  0.0000000  1.0000000  0.0000000 )
                  (  0.0000000  0.0000000 -1.0000000 )


      isym =  4     180 deg rotation - cart. axis [1,0,0]        

 cryst.   s( 4) = (     1          0          0      )
                  (     0         -1          0      )
                  (     0          0         -1      )

 cart.    s( 4) = (  1.0000000  0.0000000  0.0000000 )
                  (  0.0000000 -1.0000000  0.0000000 )
                  (  0.0000000  0.0000000 -1.0000000 )


      isym =  5     180 deg rotation - cart. axis [1,1,0]        

 cryst.   s( 5) = (     0          1          0      )
                  (     1          0          0      )
                  (     0          0         -1      )

 cart.    s( 5) = (  0.0000000  1.0000000  0.0000000 )
                  (  1.0000000  0.0000000  0.0000000 )
                  (  0.0000000  0.0000000 -1.0000000 )


      isym =  6     180 deg rotation - cart. axis [1,-1,0]       

 cryst.   s( 6) = (     0         -1          0      )
                  (    -1          0          0      )
                  (     0          0         -1      )

 cart.    s( 6) = (  0.0000000 -1.0000000  0.0000000 )
                  ( -1.0000000  0.0000000  0.0000000 )
                  (  0.0000000  0.0000000 -1.0000000 )


      isym =  7      90 deg rotation - cart. axis [0,0,-1]       

 cryst.   s( 7) = (     0         -1          0      )
                  (     1          0          0      )
                  (     0          0          1      )

 cart.    s( 7) = (  0.0000000  1.0000000  0.0000000 )
                  ( -1.0000000  0.0000000  0.0000000 )
                  (  0.0000000  0.0000000  1.0000000 )


      isym =  8      90 deg rotation - cart. axis [0,0,1]        

 cryst.   s( 8) = (     0          1          0      )
                  (    -1          0          0      )
                  (     0          0          1      )

 cart.    s( 8) = (  0.0000000 -1.0000000  0.0000000 )
                  (  1.0000000  0.0000000  0.0000000 )
                  (  0.0000000  0.0000000  1.0000000 )


      isym =  9     180 deg rotation - cart. axis [1,0,1]        

 cryst.   s( 9) = (     0          0          1      )
                  (     0         -1          0      )
                  (     1          0          0      )

 cart.    s( 9) = (  0.0000000  0.0000000  1.0000000 )
                  (  0.0000000 -1.0000000  0.0000000 )
                  (  1.0000000  0.0000000  0.0000000 )


      isym = 10     180 deg rotation - cart. axis [-1,0,1]       

 cryst.   s(10) = (     0          0         -1      )
                  (     0         -1          0      )
                  (    -1          0          0      )

 cart.    s(10) = (  0.0000000  0.0000000 -1.0000000 )
                  (  0.0000000 -1.0000000  0.0000000 )
                  ( -1.0000000  0.0000000  0.0000000 )


      isym = 11      90 deg rotation - cart. axis [0,1,0]        

 cryst.   s(11) = (     0          0         -1      )
                  (     0          1          0      )
                  (     1          0          0      )

 cart.    s(11) = (  0.0000000  0.0000000  1.0000000 )
                  (  0.0000000  1.0000000  0.0000000 )
                  ( -1.0000000  0.0000000  0.0000000 )


      isym = 12      90 deg rotation - cart. axis [0,-1,0]       

 cryst.   s(12) = (     0          0          1      )
                  (     0          1          0      )
                  (    -1          0          0      )

 cart.    s(12) = (  0.0000000  0.0000000 -1.0000000 )
                  (  0.0000000  1.0000000  0.0000000 )
                  (  1.0000000  0.0000000  0.0000000 )


      isym = 13     180 deg rotation - cart. axis [0,1,1]        

 cryst.   s(13) = (    -1          0          0      )
                  (     0          0          1      )
                  (     0          1          0      )

 cart.    s(13) = ( -1.0000000  0.0000000  0.0000000 )
                  (  0.0000000  0.0000000  1.0000000 )
                  (  0.0000000  1.0000000  0.0000000 )


      isym = 14     180 deg rotation - cart. axis [0,1,-1]       

 cryst.   s(14) = (    -1          0          0      )
                  (     0          0         -1      )
                  (     0         -1          0      )

 cart.    s(14) = ( -1.0000000  0.0000000  0.0000000 )
                  (  0.0000000  0.0000000 -1.0000000 )
                  (  0.0000000 -1.0000000  0.0000000 )


      isym = 15      90 deg rotation - cart. axis [-1,0,0]       

 cryst.   s(15) = (     1          0          0      )
                  (     0          0         -1      )
                  (     0          1          0      )

 cart.    s(15) = (  1.0000000  0.0000000  0.0000000 )
                  (  0.0000000  0.0000000  1.0000000 )
                  (  0.0000000 -1.0000000  0.0000000 )


      isym = 16      90 deg rotation - cart. axis [1,0,0]        

 cryst.   s(16) = (     1          0          0      )
                  (     0          0          1      )
                  (     0         -1          0      )

 cart.    s(16) = (  1.0000000  0.0000000  0.0000000 )
                  (  0.0000000  0.0000000 -1.0000000 )
                  (  0.0000000  1.0000000  0.0000000 )


      isym = 17     120 deg rotation - cart. axis [-1,-1,-1]     

 cryst.   s(17) = (     0          0          1      )
                  (     1          0          0      )
                  (     0          1          0      )

 cart.    s(17) = (  0.0000000  1.0000000  0.0000000 )
                  (  0.0000000  0.0000000  1.0000000 )
                  (  1.0000000  0.0000000  0.0000000 )


      isym = 18     120 deg rotation - cart. axis [-1,1,1]       

 cryst.   s(18) = (     0          0         -1      )
                  (    -1          0          0      )
                  (     0          1          0      )

 cart.    s(18) = (  0.0000000 -1.0000000  0.0000000 )
                  (  0.0000000  0.0000000  1.0000000 )
                  ( -1.0000000  0.0000000  0.0000000 )


      isym = 19     120 deg rotation - cart. axis [1,1,-1]       

 cryst.   s(19) = (     0          0         -1      )
                  (     1          0          0      )
                  (     0         -1          0      )

 cart.    s(19) = (  0.0000000  1.0000000  0.0000000 )
                  (  0.0000000  0.0000000 -1.0000000 )
                  ( -1.0000000  0.0000000  0.0000000 )


      isym = 20     120 deg rotation - cart. axis [1,-1,1]       

 cryst.   s(20) = (     0          0          1      )
                  (    -1          0          0      )
                  (     0         -1          0      )

 cart.    s(20) = (  0.0000000 -1.0000000  0.0000000 )
                  (  0.0000000  0.0000000 -1.0000000 )
                  (  1.0000000  0.0000000  0.0000000 )


      isym = 21     120 deg rotation - cart. axis [1,1,1]        

 cryst.   s(21) = (     0          1          0      )
                  (     0          0          1      )
                  (     1          0          0      )

 cart.    s(21) = (  0.0000000  0.0000000  1.0000000 )
                  (  1.0000000  0.0000000  0.0000000 )
                  (  0.0000000  1.0000000  0.0000000 )


      isym = 22     120 deg rotation - cart. axis [-1,1,-1]      

 cryst.   s(22) = (     0         -1          0      )
                  (     0          0         -1      )
                  (     1          0          0      )

 cart.    s(22) = (  0.0000000  0.0000000  1.0000000 )
                  ( -1.0000000  0.0000000  0.0000000 )
                  (  0.0000000 -1.0000000  0.0000000 )


      isym = 23     120 deg rotation - cart. axis [1,-1,-1]      

 cryst.   s(23) = (     0         -1          0      )
                  (     0          0          1      )
                  (    -1          0          0      )

 cart.    s(23) = (  0.0000000  0.0000000 -1.0000000 )
                  ( -1.0000000  0.0000000  0.0000000 )
                  (  0.0000000  1.0000000  0.0000000 )


      isym = 24     120 deg rotation - cart. axis [-1,-1,1]      

 cryst.   s(24) = (     0          1          0      )
                  (     0          0         -1      )
                  (    -1          0          0      )

 cart.    s(24) = (  0.0000000  0.0000000 -1.0000000 )
                  (  1.0000000  0.0000000  0.0000000 )
                  (  0.0000000 -1.0000000  0.0000000 )


      isym = 25     inversion                                    

 cryst.   s(25) = (    -1          0          0      )
                  (     0         -1          0      )
                  (     0          0         -1      )

 cart.    s(25) = ( -1.0000000  0.0000000  0.0000000 )
                  (  0.0000000 -1.0000000  0.0000000 )
                  (  0.0000000  0.0000000 -1.0000000 )


      isym = 26     inv. 180 deg rotation - cart. axis [0,0,1]   

 cryst.   s(26) = (     1          0          0      )
                  (     0          1          0      )
                  (     0          0         -1      )

 cart.    s(26) = (  1.0000000  0.0000000  0.0000000 )
                  (  0.0000000  1.0000000  0.0000000 )
                  (  0.0000000  0.0000000 -1.0000000 )


      isym = 27     inv. 180 deg rotation - cart. axis [0,1,0]   

 cryst.   s(27) = (     1          0          0      )
                  (     0         -1          0      )
                  (     0          0          1      )

 cart.    s(27) = (  1.0000000  0.0000000  0.0000000 )
                  (  0.0000000 -1.0000000  0.0000000 )
                  (  0.0000000  0.0000000  1.0000000 )


      isym = 28     inv. 180 deg rotation - cart. axis [1,0,0]   

 cryst.   s(28) = (    -1          0          0      )
                  (     0          1          0      )
                  (     0          0          1      )

 cart.    s(28) = ( -1.0000000  0.0000000  0.0000000 )
                  (  0.0000000  1.0000000  0.0000000 )
                  (  0.0000000  0.0000000  1.0000000 )


      isym = 29     inv. 180 deg rotation - cart. axis [1,1,0]   

 cryst.   s(29) = (     0         -1          0      )
                  (    -1          0          0      )
                  (     0          0          1      )

 cart.    s(29) = (  0.0000000 -1.0000000  0.0000000 )
                  ( -1.0000000  0.0000000  0.0000000 )
                  (  0.0000000  0.0000000  1.0000000 )


      isym = 30     inv. 180 deg rotation - cart. axis [1,-1,0]  

 cryst.   s(30) = (     0          1          0      )
                  (     1          0          0      )
                  (     0          0          1      )

 cart.    s(30) = (  0.0000000  1.0000000  0.0000000 )
                  (  1.0000000  0.0000000  0.0000000 )
                  (  0.0000000  0.0000000  1.0000000 )


      isym = 31     inv.  90 deg rotation - cart. axis [0,0,-1]  

 cryst.   s(31) = (     0          1          0      )
                  (    -1          0          0      )
                  (     0          0         -1      )

 cart.    s(31) = (  0.0000000 -1.0000000  0.0000000 )
                  (  1.0000000  0.0000000  0.0000000 )
                  (  0.0000000  0.0000000 -1.0000000 )


      isym = 32     inv.  90 deg rotation - cart. axis [0,0,1]   

 cryst.   s(32) = (     0         -1          0      )
                  (     1          0          0      )
                  (     0          0         -1      )

 cart.    s(32) = (  0.0000000  1.0000000  0.0000000 )
                  ( -1.0000000  0.0000000  0.0000000 )
                  (  0.0000000  0.0000000 -1.0000000 )


      isym = 33     inv. 180 deg rotation - cart. axis [1,0,1]   

 cryst.   s(33) = (     0          0         -1      )
                  (     0          1          0      )
                  (    -1          0          0      )

 cart.    s(33) = (  0.0000000  0.0000000 -1.0000000 )
                  (  0.0000000  1.0000000  0.0000000 )
                  ( -1.0000000  0.0000000  0.0000000 )


      isym = 34     inv. 180 deg rotation - cart. axis [-1,0,1]  

 cryst.   s(34) = (     0          0          1      )
                  (     0          1          0      )
                  (     1          0          0      )

 cart.    s(34) = (  0.0000000  0.0000000  1.0000000 )
                  (  0.0000000  1.0000000  0.0000000 )
                  (  1.0000000  0.0000000  0.0000000 )


      isym = 35     inv.  90 deg rotation - cart. axis [0,1,0]   

 cryst.   s(35) = (     0          0          1      )
                  (     0         -1          0      )
                  (    -1          0          0      )

 cart.    s(35) = (  0.0000000  0.0000000 -1.0000000 )
                  (  0.0000000 -1.0000000  0.0000000 )
                  (  1.0000000  0.0000000  0.0000000 )


      isym = 36     inv.  90 deg rotation - cart. axis [0,-1,0]  

 cryst.   s(36) = (     0          0         -1      )
                  (     0         -1          0      )
                  (     1          0          0      )

 cart.    s(36) = (  0.0000000  0.0000000  1.0000000 )
                  (  0.0000000 -1.0000000  0.0000000 )
                  ( -1.0000000  0.0000000  0.0000000 )


      isym = 37     inv. 180 deg rotation - cart. axis [0,1,1]   

 cryst.   s(37) = (     1          0          0      )
                  (     0          0         -1      )
                  (     0         -1          0      )

 cart.    s(37) = (  1.0000000  0.0000000  0.0000000 )
                  (  0.0000000  0.0000000 -1.0000000 )
                  (  0.0000000 -1.0000000  0.0000000 )


      isym = 38     inv. 180 deg rotation - cart. axis [0,1,-1]  

 cryst.   s(38) = (     1          0          0      )
                  (     0          0          1      )
                  (     0          1          0      )

 cart.    s(38) = (  1.0000000  0.0000000  0.0000000 )
                  (  0.0000000  0.0000000  1.0000000 )
                  (  0.0000000  1.0000000  0.0000000 )


      isym = 39     inv.  90 deg rotation - cart. axis [-1,0,0]  

 cryst.   s(39) = (    -1          0          0      )
                  (     0          0          1      )
                  (     0         -1          0      )

 cart.    s(39) = ( -1.0000000  0.0000000  0.0000000 )
                  (  0.0000000  0.0000000 -1.0000000 )
                  (  0.0000000  1.0000000  0.0000000 )


      isym = 40     inv.  90 deg rotation - cart. axis [1,0,0]   

 cryst.   s(40) = (    -1          0          0      )
                  (     0          0         -1      )
                  (     0          1          0      )

 cart.    s(40) = ( -1.0000000  0.0000000  0.0000000 )
                  (  0.0000000  0.0000000  1.0000000 )
                  (  0.0000000 -1.0000000  0.0000000 )


      isym = 41     inv. 120 deg rotation - cart. axis [-1,-1,-1]

 cryst.   s(41) = (     0          0         -1      )
                  (    -1          0          0      )
                  (     0         -1          0      )

 cart.    s(41) = (  0.0000000 -1.0000000  0.0000000 )
                  (  0.0000000  0.0000000 -1.0000000 )
                  ( -1.0000000  0.0000000  0.0000000 )


      isym = 42     inv. 120 deg rotation - cart. axis [-1,1,1]  

 cryst.   s(42) = (     0          0          1      )
                  (     1          0          0      )
                  (     0         -1          0      )

 cart.    s(42) = (  0.0000000  1.0000000  0.0000000 )
                  (  0.0000000  0.0000000 -1.0000000 )
                  (  1.0000000  0.0000000  0.0000000 )


      isym = 43     inv. 120 deg rotation - cart. axis [1,1,-1]  

 cryst.   s(43) = (     0          0          1      )
                  (    -1          0          0      )
                  (     0          1          0      )

 cart.    s(43) = (  0.0000000 -1.0000000  0.0000000 )
                  (  0.0000000  0.0000000  1.0000000 )
                  (  1.0000000  0.0000000  0.0000000 )


      isym = 44     inv. 120 deg rotation - cart. axis [1,-1,1]  

 cryst.   s(44) = (     0          0         -1      )
                  (     1          0          0      )
                  (     0          1          0      )

 cart.    s(44) = (  0.0000000  1.0000000  0.0000000 )
                  (  0.0000000  0.0000000  1.0000000 )
                  ( -1.0000000  0.0000000  0.0000000 )


      isym = 45     inv. 120 deg rotation - cart. axis [1,1,1]   

 cryst.   s(45) = (     0         -1          0      )
                  (     0          0         -1      )
                  (    -1          0          0      )

 cart.    s(45) = (  0.0000000  0.0000000 -1.0000000 )
                  ( -1.0000000  0.0000000  0.0000000 )
                  (  0.0000000 -1.0000000  0.0000000 )


      isym = 46     inv. 120 deg rotation - cart. axis [-1,1,-1] 

 cryst.   s(46) = (     0          1          0      )
                  (     0          0          1      )
                  (    -1          0          0      )

 cart.    s(46) = (  0.0000000  0.0000000 -1.0000000 )
                  (  1.0000000  0.0000000  0.0000000 )
                  (  0.0000000  1.0000000  0.0000000 )


      isym = 47     inv. 120 deg rotation - cart. axis [1,-1,-1] 

 cryst.   s(47) = (     0          1          0      )
                  (     0          0         -1      )
                  (     1          0          0      )

 cart.    s(47) = (  0.0000000  0.0000000  1.0000000 )
                  (  1.0000000  0.0000000  0.0000000 )
                  (  0.0000000 -1.0000000  0.0000000 )


      isym = 48     inv. 120 deg rotation - cart. axis [-1,-1,1] 

 cryst.   s(48) = (     0         -1          0      )
                  (     0          0          1      )
                  (     1          0          0      )

 cart.    s(48) = (  0.0000000  0.0000000  1.0000000 )
                  ( -1.0000000  0.0000000  0.0000000 )
                  (  0.0000000  1.0000000  0.0000000 )


   Cartesian axes

     site n.     atom                  positions (alat units)
         1        Fe     tau(   1) = (   0.0000000   0.0000000   0.0000000  )
         2        Fe     tau(   2) = (   0.1666667   0.1666667   0.1666667  )
         3        Fe     tau(   3) = (   0.0000000   0.0000000   0.3333333  )
         4        Fe     tau(   4) = (   0.1666667   0.1666667   0.5000000  )
         5        Fe     tau(   5) = (   0.0000000   0.0000000   0.6666667  )
         6        Fe     tau(   6) = (   0.1666667   0.1666667   0.8333333  )
         7        Fe     tau(   7) = (   0.0000000   0.3333333   0.0000000  )
         8        Fe     tau(   8) = (   0.1666667   0.5000000   0.1666667  )
         9        Fe     tau(   9) = (   0.0000000   0.3333333   0.3333333  )
        10        Fe     tau(  10) = (   0.1666667   0.5000000   0.5000000  )
        11        Fe     tau(  11) = (   0.0000000   0.3333333   0.6666667  )
        12        Fe     tau(  12) = (   0.1666667   0.5000000   0.8333333  )
        13        Fe     tau(  13) = (   0.0000000   0.6666667   0.0000000  )
        14        Fe     tau(  14) = (   0.1666667   0.8333333   0.1666667  )
        15        Fe     tau(  15) = (   0.0000000   0.6666667   0.3333333  )
        16        Fe     tau(  16) = (   0.1666667   0.8333333   0.5000000  )
        17        Fe     tau(  17) = (   0.0000000   0.6666667   0.6666667  )
        18        Fe     tau(  18) = (   0.1666667   0.8333333   0.8333333  )
        19        Fe     tau(  19) = (   0.3333333   0.0000000   0.0000000  )
        20        Fe     tau(  20) = (   0.5000000   0.1666667   0.1666667  )
        21        Fe     tau(  21) = (   0.3333333   0.0000000   0.3333333  )
        22        Fe     tau(  22) = (   0.5000000   0.1666667   0.5000000  )
        23        Fe     tau(  23) = (   0.3333333   0.0000000   0.6666667  )
        24        Fe     tau(  24) = (   0.5000000   0.1666667   0.8333333  )
        25        Fe     tau(  25) = (   0.3333333   0.3333333   0.0000000  )
        26        Fe     tau(  26) = (   0.5000000   0.5000000   0.1666667  )
        27        Fe     tau(  27) = (   0.3333333   0.3333333   0.3333333  )
        28        Fe     tau(  28) = (   0.5000000   0.5000000   0.5000000  )
        29        Fe     tau(  29) = (   0.3333333   0.3333333   0.6666667  )
        30        Fe     tau(  30) = (   0.5000000   0.5000000   0.8333333  )
        31        Fe     tau(  31) = (   0.3333333   0.6666667   0.0000000  )
        32        Fe     tau(  32) = (   0.5000000   0.8333333   0.1666667  )
        33        Fe     tau(  33) = (   0.3333333   0.6666667   0.3333333  )
        34        Fe     tau(  34) = (   0.5000000   0.8333333   0.5000000  )
        35        Fe     tau(  35) = (   0.3333333   0.6666667   0.6666667  )
        36        Fe     tau(  36) = (   0.5000000   0.8333333   0.8333333  )
        37        Fe     tau(  37) = (   0.6666667   0.0000000   0.0000000  )
        38        Fe     tau(  38) = (   0.8333333   0.1666667   0.1666667  )
        39        Fe     tau(  39) = (   0.6666667   0.0000000   0.3333333  )
        40        Fe     tau(  40) = (   0.8333333   0.1666667   0.5000000  )
        41        Fe     tau(  41) = (   0.6666667   0.0000000   0.6666667  )
        42        Fe     tau(  42) = (   0.8333333   0.1666667   0.8333333  )
        43        Fe     tau(  43) = (   0.6666667   0.3333333   0.0000000  )
        44        Fe     tau(  44) = (   0.8333333   0.5000000   0.1666667  )
        45        Fe     tau(  45) = (   0.6666667   0.3333333   0.3333333  )
        46        Fe     tau(  46) = (   0.8333333   0.5000000   0.5000000  )
        47        Fe     tau(  47) = (   0.6666667   0.3333333   0.6666667  )
        48        Fe     tau(  48) = (   0.8333333   0.5000000   0.8333333  )
        49        Fe     tau(  49) = (   0.6666667   0.6666667   0.0000000  )
        50        Fe     tau(  50) = (   0.8333333   0.8333333   0.1666667  )
        51        Fe     tau(  51) = (   0.6666667   0.6666667   0.3333333  )
        52        Fe     tau(  52) = (   0.8333333   0.8333333   0.5000000  )
        53        Fe     tau(  53) = (   0.6666667   0.6666667   0.6666667  )
        54        Fe     tau(  54) = (   0.8333333   0.8333333   0.8333333  )

   Crystallographic axes

     site n.     atom                  positions (cryst. coord.)
         1        Fe     tau(   1) = (  0.0000000  0.0000000  0.0000000  )
         2        Fe     tau(   2) = (  0.1666667  0.1666667  0.1666667  )
         3        Fe     tau(   3) = (  0.0000000  0.0000000  0.3333333  )
         4        Fe     tau(   4) = (  0.1666667  0.1666667  0.5000000  )
         5        Fe     tau(   5) = (  0.0000000  0.0000000  0.6666667  )
         6        Fe     tau(   6) = (  0.1666667  0.1666667  0.8333333  )
         7        Fe     tau(   7) = (  0.0000000  0.3333333  0.0000000  )
         8        Fe     tau(   8) = (  0.1666667  0.5000000  0.1666667  )
         9        Fe     tau(   9) = (  0.0000000  0.3333333  0.3333333  )
        10        Fe     tau(  10) = (  0.1666667  0.5000000  0.5000000  )
        11        Fe     tau(  11) = (  0.0000000  0.3333333  0.6666667  )
        12        Fe     tau(  12) = (  0.1666667  0.5000000  0.8333333  )
        13        Fe     tau(  13) = (  0.0000000  0.6666667  0.0000000  )
        14        Fe     tau(  14) = (  0.1666667  0.8333333  0.1666667  )
        15        Fe     tau(  15) = (  0.0000000  0.6666667  0.3333333  )
        16        Fe     tau(  16) = (  0.1666667  0.8333333  0.5000000  )
        17        Fe     tau(  17) = (  0.0000000  0.6666667  0.6666667  )
        18        Fe     tau(  18) = (  0.1666667  0.8333333  0.8333333  )
        19        Fe     tau(  19) = (  0.3333333  0.0000000  0.0000000  )
        20        Fe     tau(  20) = (  0.5000000  0.1666667  0.1666667  )
        21        Fe     tau(  21) = (  0.3333333  0.0000000  0.3333333  )
        22        Fe     tau(  22) = (  0.5000000  0.1666667  0.5000000  )
        23        Fe     tau(  23) = (  0.3333333  0.0000000  0.6666667  )
        24        Fe     tau(  24) = (  0.5000000  0.1666667  0.8333333  )
        25        Fe     tau(  25) = (  0.3333333  0.3333333  0.0000000  )
        26        Fe     tau(  26) = (  0.5000000  0.5000000  0.1666667  )
        27        Fe     tau(  27) = (  0.3333333  0.3333333  0.3333333  )
        28        Fe     tau(  28) = (  0.5000000  0.5000000  0.5000000  )
        29        Fe     tau(  29) = (  0.3333333  0.3333333  0.6666667  )
        30        Fe     tau(  30) = (  0.5000000  0.5000000  0.8333333  )
        31        Fe     tau(  31) = (  0.3333333  0.6666667  0.0000000  )
        32        Fe     tau(  32) = (  0.5000000  0.8333333  0.1666667  )
        33        Fe     tau(  33) = (  0.3333333  0.6666667  0.3333333  )
        34        Fe     tau(  34) = (  0.5000000  0.8333333  0.5000000  )
        35        Fe     tau(  35) = (  0.3333333  0.6666667  0.6666667  )
        36        Fe     tau(  36) = (  0.5000000  0.8333333  0.8333333  )
        37        Fe     tau(  37) = (  0.6666667  0.0000000  0.0000000  )
        38        Fe     tau(  38) = (  0.8333333  0.1666667  0.1666667  )
        39        Fe     tau(  39) = (  0.6666667  0.0000000  0.3333333  )
        40        Fe     tau(  40) = (  0.8333333  0.1666667  0.5000000  )
        41        Fe     tau(  41) = (  0.6666667  0.0000000  0.6666667  )
        42        Fe     tau(  42) = (  0.8333333  0.1666667  0.8333333  )
        43        Fe     tau(  43) = (  0.6666667  0.3333333  0.0000000  )
        44        Fe     tau(  44) = (  0.8333333  0.5000000  0.1666667  )
        45        Fe     tau(  45) = (  0.6666667  0.3333333  0.3333333  )
        46        Fe     tau(  46) = (  0.8333333  0.5000000  0.5000000  )
        47        Fe     tau(  47) = (  0.6666667  0.3333333  0.6666667  )
        48        Fe     tau(  48) = (  0.8333333  0.5000000  0.8333333  )
        49        Fe     tau(  49) = (  0.6666667  0.6666667  0.0000000  )
        50        Fe     tau(  50) = (  0.8333333  0.8333333  0.1666667  )
        51        Fe     tau(  51) = (  0.6666667  0.6666667  0.3333333  )
        52        Fe     tau(  52) = (  0.8333333  0.8333333  0.5000000  )
        53        Fe     tau(  53) = (  0.6666667  0.6666667  0.6666667  )
        54        Fe     tau(  54) = (  0.8333333  0.8333333  0.8333333  )

     number of k points=    56  Marzari-Vanderbilt smearing, width (Ry)=  0.0100
                       cart. coord. in units 2pi/alat
        k(    1) = (   0.0000000   0.0000000   0.0000000), wk =   0.0010000
        k(    2) = (   0.0000000   0.0000000   0.1000000), wk =   0.0060000
        k(    3) = (   0.0000000   0.0000000   0.2000000), wk =   0.0060000
        k(    4) = (   0.0000000   0.0000000   0.3000000), wk =   0.0060000
        k(    5) = (   0.0000000   0.0000000   0.4000000), wk =   0.0060000
        k(    6) = (   0.0000000   0.0000000  -0.5000000), wk =   0.0030000
        k(    7) = (   0.0000000   0.1000000   0.1000000), wk =   0.0120000
        k(    8) = (   0.0000000   0.1000000   0.2000000), wk =   0.0240000
        k(    9) = (   0.0000000   0.1000000   0.3000000), wk =   0.0240000
        k(   10) = (   0.0000000   0.1000000   0.4000000), wk =   0.0240000
        k(   11) = (   0.0000000   0.1000000  -0.5000000), wk =   0.0120000
        k(   12) = (   0.0000000   0.2000000   0.2000000), wk =   0.0120000
        k(   13) = (   0.0000000   0.2000000   0.3000000), wk =   0.0240000
        k(   14) = (   0.0000000   0.2000000   0.4000000), wk =   0.0240000
        k(   15) = (   0.0000000   0.2000000  -0.5000000), wk =   0.0120000
        k(   16) = (   0.0000000   0.3000000   0.3000000), wk =   0.0120000
        k(   17) = (   0.0000000   0.3000000   0.4000000), wk =   0.0240000
        k(   18) = (   0.0000000   0.3000000  -0.5000000), wk =   0.0120000
        k(   19) = (   0.0000000   0.4000000   0.4000000), wk =   0.0120000
        k(   20) = (   0.0000000   0.4000000  -0.5000000), wk =   0.0120000
        k(   21) = (   0.0000000  -0.5000000  -0.5000000), wk =   0.0030000
        k(   22) = (   0.1000000   0.1000000   0.1000000), wk =   0.0080000
        k(   23) = (   0.1000000   0.1000000   0.2000000), wk =   0.0240000
        k(   24) = (   0.1000000   0.1000000   0.3000000), wk =   0.0240000
        k(   25) = (   0.1000000   0.1000000   0.4000000), wk =   0.0240000
        k(   26) = (   0.1000000   0.1000000  -0.5000000), wk =   0.0120000
        k(   27) = (   0.1000000   0.2000000   0.2000000), wk =   0.0240000
        k(   28) = (   0.1000000   0.2000000   0.3000000), wk =   0.0480000
        k(   29) = (   0.1000000   0.2000000   0.4000000), wk =   0.0480000
        k(   30) = (   0.1000000   0.2000000  -0.5000000), wk =   0.0240000
        k(   31) = (   0.1000000   0.3000000   0.3000000), wk =   0.0240000
        k(   32) = (   0.1000000   0.3000000   0.4000000), wk =   0.0480000
        k(   33) = (   0.1000000   0.3000000  -0.5000000), wk =   0.0240000
        k(   34) = (   0.1000000   0.4000000   0.4000000), wk =   0.0240000
        k(   35) = (   0.1000000   0.4000000  -0.5000000), wk =   0.0240000
        k(   36) = (   0.1000000  -0.5000000  -0.5000000), wk =   0.0060000
        k(   37) = (   0.2000000   0.2000000   0.2000000), wk =   0.0080000
        k(   38) = (   0.2000000   0.2000000   0.3000000), wk =   0.0240000
        k(   39) = (   0.2000000   0.2000000   0.4000000), wk =   0.0240000
        k(   40) = (   0.2000000   0.2000000  -0.5000000), wk =   0.0120000
        k(   41) = (   0.2000000   0.3000000   0.3000000), wk =   0.0240000
        k(   42) = (   0.2000000   0.3000000   0.4000000), wk =   0.0480000
        k(   43) = (   0.2000000   0.3000000  -0.5000000), wk =   0.0240000
        k(   44) = (   0.2000000   0.4000000   0.4000000), wk =   0.0240000
        k(   45) = (   0.2000000   0.4000000  -0.5000000), wk =   0.0240000
        k(   46) = (   0.2000000  -0.5000000  -0.5000000), wk =   0.0060000
        k(   47) = (   0.3000000   0.3000000   0.3000000), wk =   0.0080000
        k(   48) = (   0.3000000   0.3000000   0.4000000), wk =   0.0240000
        k(   49) = (   0.3000000   0.3000000  -0.5000000), wk =   0.0120000
        k(   50) = (   0.3000000   0.4000000   0.4000000), wk =   0.0240000
        k(   51) = (   0.3000000   0.4000000  -0.5000000), wk =   0.0240000
        k(   52) = (   0.3000000  -0.5000000  -0.5000000), wk =   0.0060000
        k(   53) = (   0.4000000   0.4000000   0.4000000), wk =   0.0080000
        k(   54) = (   0.4000000   0.4000000  -0.5000000), wk =   0.0120000
        k(   55) = (   0.4000000  -0.5000000  -0.5000000), wk =   0.0060000
        k(   56) = (  -0.5000000  -0.5000000  -0.5000000), wk =   0.0010000

                       cryst. coord.
        k(    1) = (   0.0000000   0.0000000   0.0000000), wk =   0.0010000
        k(    2) = (   0.0000000   0.0000000   0.1000000), wk =   0.0060000
        k(    3) = (   0.0000000   0.0000000   0.2000000), wk =   0.0060000
        k(    4) = (   0.0000000   0.0000000   0.3000000), wk =   0.0060000
        k(    5) = (   0.0000000   0.0000000   0.4000000), wk =   0.0060000
        k(    6) = (   0.0000000   0.0000000  -0.5000000), wk =   0.0030000
        k(    7) = (   0.0000000   0.1000000   0.1000000), wk =   0.0120000
        k(    8) = (   0.0000000   0.1000000   0.2000000), wk =   0.0240000
        k(    9) = (   0.0000000   0.1000000   0.3000000), wk =   0.0240000
        k(   10) = (   0.0000000   0.1000000   0.4000000), wk =   0.0240000
        k(   11) = (   0.0000000   0.1000000  -0.5000000), wk =   0.0120000
        k(   12) = (   0.0000000   0.2000000   0.2000000), wk =   0.0120000
        k(   13) = (   0.0000000   0.2000000   0.3000000), wk =   0.0240000
        k(   14) = (   0.0000000   0.2000000   0.4000000), wk =   0.0240000
        k(   15) = (   0.0000000   0.2000000  -0.5000000), wk =   0.0120000
        k(   16) = (   0.0000000   0.3000000   0.3000000), wk =   0.0120000
        k(   17) = (   0.0000000   0.3000000   0.4000000), wk =   0.0240000
        k(   18) = (   0.0000000   0.3000000  -0.5000000), wk =   0.0120000
        k(   19) = (   0.0000000   0.4000000   0.4000000), wk =   0.0120000
        k(   20) = (   0.0000000   0.4000000  -0.5000000), wk =   0.0120000
        k(   21) = (   0.0000000  -0.5000000  -0.5000000), wk =   0.0030000
        k(   22) = (   0.1000000   0.1000000   0.1000000), wk =   0.0080000
        k(   23) = (   0.1000000   0.1000000   0.2000000), wk =   0.0240000
        k(   24) = (   0.1000000   0.1000000   0.3000000), wk =   0.0240000
        k(   25) = (   0.1000000   0.1000000   0.4000000), wk =   0.0240000
        k(   26) = (   0.1000000   0.1000000  -0.5000000), wk =   0.0120000
        k(   27) = (   0.1000000   0.2000000   0.2000000), wk =   0.0240000
        k(   28) = (   0.1000000   0.2000000   0.3000000), wk =   0.0480000
        k(   29) = (   0.1000000   0.2000000   0.4000000), wk =   0.0480000
        k(   30) = (   0.1000000   0.2000000  -0.5000000), wk =   0.0240000
        k(   31) = (   0.1000000   0.3000000   0.3000000), wk =   0.0240000
        k(   32) = (   0.1000000   0.3000000   0.4000000), wk =   0.0480000
        k(   33) = (   0.1000000   0.3000000  -0.5000000), wk =   0.0240000
        k(   34) = (   0.1000000   0.4000000   0.4000000), wk =   0.0240000
        k(   35) = (   0.1000000   0.4000000  -0.5000000), wk =   0.0240000
        k(   36) = (   0.1000000  -0.5000000  -0.5000000), wk =   0.0060000
        k(   37) = (   0.2000000   0.2000000   0.2000000), wk =   0.0080000
        k(   38) = (   0.2000000   0.2000000   0.3000000), wk =   0.0240000
        k(   39) = (   0.2000000   0.2000000   0.4000000), wk =   0.0240000
        k(   40) = (   0.2000000   0.2000000  -0.5000000), wk =   0.0120000
        k(   41) = (   0.2000000   0.3000000   0.3000000), wk =   0.0240000
        k(   42) = (   0.2000000   0.3000000   0.4000000), wk =   0.0480000
        k(   43) = (   0.2000000   0.3000000  -0.5000000), wk =   0.0240000
        k(   44) = (   0.2000000   0.4000000   0.4000000), wk =   0.0240000
        k(   45) = (   0.2000000   0.4000000  -0.5000000), wk =   0.0240000
        k(   46) = (   0.2000000  -0.5000000  -0.5000000), wk =   0.0060000
        k(   47) = (   0.3000000   0.3000000   0.3000000), wk =   0.0080000
        k(   48) = (   0.3000000   0.3000000   0.4000000), wk =   0.0240000
        k(   49) = (   0.3000000   0.3000000  -0.5000000), wk =   0.0120000
        k(   50) = (   0.3000000   0.4000000   0.4000000), wk =   0.0240000
        k(   51) = (   0.3000000   0.4000000  -0.5000000), wk =   0.0240000
        k(   52) = (   0.3000000  -0.5000000  -0.5000000), wk =   0.0060000
        k(   53) = (   0.4000000   0.4000000   0.4000000), wk =   0.0080000
        k(   54) = (   0.4000000   0.4000000  -0.5000000), wk =   0.0120000
        k(   55) = (   0.4000000  -0.5000000  -0.5000000), wk =   0.0060000
        k(   56) = (  -0.5000000  -0.5000000  -0.5000000), wk =   0.0010000

     Dense  grid:  2576031 G-vectors     FFT dimensions: ( 180, 180, 180)

     Smooth grid:   495639 G-vectors     FFT dimensions: ( 100, 100, 100)

     Dynamical RAM for                 wfc:      30.61 MB

     Dynamical RAM for     wfc (w. buffer):     459.19 MB

     Dynamical RAM for           str. fact:       2.46 MB

     Dynamical RAM for           local pot:       0.00 MB

     Dynamical RAM for          nlocal pot:      57.44 MB

     Dynamical RAM for                qrad:       2.64 MB

     Dynamical RAM for          rho,v,vnew:      32.54 MB

     Dynamical RAM for               rhoin:      10.85 MB

     Dynamical RAM for            rho*nmix:      78.61 MB

     Dynamical RAM for           G-vectors:       9.45 MB

     Dynamical RAM for          h,s,v(r/c):       3.07 MB

     Dynamical RAM for          <psi|beta>:       7.68 MB

     Dynamical RAM for                 psi:      61.22 MB

     Dynamical RAM for                hpsi:      61.22 MB

     Dynamical RAM for                spsi:      61.22 MB

     Dynamical RAM for      wfcinit/wfcrot:      70.50 MB

     Dynamical RAM for           addusdens:      78.31 MB

     Dynamical RAM for          addusforce:     109.13 MB

     Dynamical RAM for         addusstress:      64.33 MB

     Estimated static dynamical RAM per process >     597.27 MB

     Estimated max dynamical RAM per process >     870.31 MB

     Estimated total dynamical RAM >     100.19 GB
     Generating pointlists ...
     new r_m :   0.1191 (alat units)  1.9362 (a.u.) for type    1

     Initial potential from superposition of free atoms

     starting charge     863.9764, renormalised to     864.0000
     Starting wfcs are  540 randomized atomic wfcs
     Checking if some PAW data can be deallocated... 

     total cpu time spent up to now is       75.5 secs

     per-process dynamical memory:   838.5 Mb

     Self-consistent Calculation

     iteration #  1     ecut=    90.00 Ry     beta= 0.20
     Davidson diagonalization with overlap

---- Real-time Memory Report at c_bands before calling an iterative solver
          1409 MiB given to the printing process from OS
           818 MiB allocation reported by mallinfo(arena+hblkhd)
        358339 MiB available memory on the node where the printing process lives
------------------
     ethr =  1.00E-02,  avg # of iterations =  3.4

     total cpu time spent up to now is      331.9 secs

     total energy              =  -17771.86407302 Ry
     estimated scf accuracy    <      15.01322155 Ry

     total magnetization       =   168.42 Bohr mag/cell
     absolute magnetization    =   170.83 Bohr mag/cell

     iteration #  2     ecut=    90.00 Ry     beta= 0.20
     Davidson diagonalization with overlap

---- Real-time Memory Report at c_bands before calling an iterative solver
          1560 MiB given to the printing process from OS
           830 MiB allocation reported by mallinfo(arena+hblkhd)
        357657 MiB available memory on the node where the printing process lives
------------------
     ethr =  1.74E-03,  avg # of iterations =  3.9

     negative rho (up, down):  0.000E+00 1.201E-02

     total cpu time spent up to now is      555.6 secs

     total energy              =  -17778.73759539 Ry
     estimated scf accuracy    <      10.21634336 Ry

     total magnetization       =   164.75 Bohr mag/cell
     absolute magnetization    =   168.56 Bohr mag/cell

     iteration #  3     ecut=    90.00 Ry     beta= 0.20
     Davidson diagonalization with overlap

---- Real-time Memory Report at c_bands before calling an iterative solver
          1572 MiB given to the printing process from OS
           832 MiB allocation reported by mallinfo(arena+hblkhd)
        357632 MiB available memory on the node where the printing process lives
------------------
     ethr =  1.18E-03,  avg # of iterations =  2.3

     negative rho (up, down):  0.000E+00 2.034E-02

     total cpu time spent up to now is      776.6 secs

     total energy              =  -17779.35345679 Ry
     estimated scf accuracy    <      19.22582863 Ry

     total magnetization       =   143.35 Bohr mag/cell
     absolute magnetization    =   151.09 Bohr mag/cell

     iteration #  4     ecut=    90.00 Ry     beta= 0.20
     Davidson diagonalization with overlap

---- Real-time Memory Report at c_bands before calling an iterative solver
          1574 MiB given to the printing process from OS
           835 MiB allocation reported by mallinfo(arena+hblkhd)
        357593 MiB available memory on the node where the printing process lives
------------------
     ethr =  1.18E-03,  avg # of iterations =  1.7

     negative rho (up, down):  0.000E+00 2.250E-02

     total cpu time spent up to now is      980.8 secs

     total energy              =  -17780.31377521 Ry
     estimated scf accuracy    <       4.88334145 Ry

     total magnetization       =   138.88 Bohr mag/cell
     absolute magnetization    =   147.43 Bohr mag/cell

     iteration #  5     ecut=    90.00 Ry     beta= 0.20
     Davidson diagonalization with overlap

---- Real-time Memory Report at c_bands before calling an iterative solver
          1577 MiB given to the printing process from OS
           837 MiB allocation reported by mallinfo(arena+hblkhd)
        357552 MiB available memory on the node where the printing process lives
------------------
     ethr =  5.65E-04,  avg # of iterations =  2.2

     negative rho (up, down):  0.000E+00 2.173E-02

     total cpu time spent up to now is     1189.7 secs

     total energy              =  -17780.46450933 Ry
     estimated scf accuracy    <       0.76769617 Ry

     total magnetization       =   136.47 Bohr mag/cell
     absolute magnetization    =   145.10 Bohr mag/cell

     iteration #  6     ecut=    90.00 Ry     beta= 0.20
     Davidson diagonalization with overlap

---- Real-time Memory Report at c_bands before calling an iterative solver
          1579 MiB given to the printing process from OS
           839 MiB allocation reported by mallinfo(arena+hblkhd)
        357512 MiB available memory on the node where the printing process lives
------------------
     ethr =  8.89E-05,  avg # of iterations =  4.0

     negative rho (up, down):  0.000E+00 1.529E-02

     total cpu time spent up to now is     1416.4 secs

     total energy              =  -17780.36669777 Ry
     estimated scf accuracy    <       0.55287923 Ry

     total magnetization       =   135.92 Bohr mag/cell
     absolute magnetization    =   144.35 Bohr mag/cell

     iteration #  7     ecut=    90.00 Ry     beta= 0.20
     Davidson diagonalization with overlap

---- Real-time Memory Report at c_bands before calling an iterative solver
          1581 MiB given to the printing process from OS
           841 MiB allocation reported by mallinfo(arena+hblkhd)
        357465 MiB available memory on the node where the printing process lives
------------------
     ethr =  6.40E-05,  avg # of iterations =  4.5

     negative rho (up, down):  0.000E+00 1.283E-02

     total cpu time spent up to now is     1661.5 secs

     total energy              =  -17780.45191555 Ry
     estimated scf accuracy    <       0.25239792 Ry

     total magnetization       =   129.12 Bohr mag/cell
     absolute magnetization    =   137.75 Bohr mag/cell

     iteration #  8     ecut=    90.00 Ry     beta= 0.20
     Davidson diagonalization with overlap

---- Real-time Memory Report at c_bands before calling an iterative solver
          1584 MiB given to the printing process from OS
           844 MiB allocation reported by mallinfo(arena+hblkhd)
        357401 MiB available memory on the node where the printing process lives
------------------
     ethr =  2.92E-05,  avg # of iterations =  4.2

     negative rho (up, down):  0.000E+00 1.066E-02

     total cpu time spent up to now is     1887.5 secs

     total energy              =  -17780.49512258 Ry
     estimated scf accuracy    <       0.13771571 Ry

     total magnetization       =   125.68 Bohr mag/cell
     absolute magnetization    =   134.62 Bohr mag/cell

     iteration #  9     ecut=    90.00 Ry     beta= 0.20
     Davidson diagonalization with overlap

---- Real-time Memory Report at c_bands before calling an iterative solver
          1586 MiB given to the printing process from OS
           846 MiB allocation reported by mallinfo(arena+hblkhd)
        357347 MiB available memory on the node where the printing process lives
------------------
     ethr =  1.59E-05,  avg # of iterations =  2.5

     negative rho (up, down):  0.000E+00 8.101E-03

     total cpu time spent up to now is     2108.1 secs

     total energy              =  -17780.49605492 Ry
     estimated scf accuracy    <       0.17981003 Ry

     total magnetization       =   122.60 Bohr mag/cell
     absolute magnetization    =   131.60 Bohr mag/cell

     iteration # 10     ecut=    90.00 Ry     beta= 0.20
     Davidson diagonalization with overlap

---- Real-time Memory Report at c_bands before calling an iterative solver
          1588 MiB given to the printing process from OS
           848 MiB allocation reported by mallinfo(arena+hblkhd)
        357302 MiB available memory on the node where the printing process lives
------------------
     ethr =  1.59E-05,  avg # of iterations =  1.6

     negative rho (up, down):  0.000E+00 3.732E-03

     total cpu time spent up to now is     2311.3 secs

     total energy              =  -17780.51491762 Ry
     estimated scf accuracy    <       0.09582892 Ry

     total magnetization       =   121.14 Bohr mag/cell
     absolute magnetization    =   130.09 Bohr mag/cell

     iteration # 11     ecut=    90.00 Ry     beta= 0.20
     Davidson diagonalization with overlap

---- Real-time Memory Report at c_bands before calling an iterative solver
          1590 MiB given to the printing process from OS
           848 MiB allocation reported by mallinfo(arena+hblkhd)
        357295 MiB available memory on the node where the printing process lives
------------------
     ethr =  1.11E-05,  avg # of iterations =  4.3

     negative rho (up, down):  0.000E+00 3.521E-03

     total cpu time spent up to now is     2562.0 secs

     total energy              =  -17780.53508340 Ry
     estimated scf accuracy    <       0.02479460 Ry

     total magnetization       =   121.22 Bohr mag/cell
     absolute magnetization    =   129.12 Bohr mag/cell

     iteration # 12     ecut=    90.00 Ry     beta= 0.20
     Davidson diagonalization with overlap

---- Real-time Memory Report at c_bands before calling an iterative solver
          1590 MiB given to the printing process from OS
           848 MiB allocation reported by mallinfo(arena+hblkhd)
        357266 MiB available memory on the node where the printing process lives
------------------
     ethr =  2.87E-06,  avg # of iterations =  5.0

     negative rho (up, down):  0.000E+00 3.151E-03

     total cpu time spent up to now is     2811.6 secs

     total energy              =  -17780.53964785 Ry
     estimated scf accuracy    <       0.03296597 Ry

     total magnetization       =   120.53 Bohr mag/cell
     absolute magnetization    =   128.34 Bohr mag/cell

     iteration # 13     ecut=    90.00 Ry     beta= 0.20
     Davidson diagonalization with overlap

---- Real-time Memory Report at c_bands before calling an iterative solver
          1590 MiB given to the printing process from OS
           848 MiB allocation reported by mallinfo(arena+hblkhd)
        357257 MiB available memory on the node where the printing process lives
------------------
     ethr =  2.87E-06,  avg # of iterations =  3.2

     negative rho (up, down):  0.000E+00 2.980E-03

     total cpu time spent up to now is     3045.6 secs

     total energy              =  -17780.54503264 Ry
     estimated scf accuracy    <       0.00301957 Ry

     total magnetization       =   120.48 Bohr mag/cell
     absolute magnetization    =   128.08 Bohr mag/cell

     iteration # 14     ecut=    90.00 Ry     beta= 0.20
     Davidson diagonalization with overlap

---- Real-time Memory Report at c_bands before calling an iterative solver
          1590 MiB given to the printing process from OS
           848 MiB allocation reported by mallinfo(arena+hblkhd)
        357242 MiB available memory on the node where the printing process lives
------------------
     ethr =  3.49E-07,  avg # of iterations =  4.9

     negative rho (up, down):  0.000E+00 2.991E-03

     total cpu time spent up to now is     3316.3 secs

     total energy              =  -17780.54485886 Ry
     estimated scf accuracy    <       0.01399985 Ry

     total magnetization       =   120.45 Bohr mag/cell
     absolute magnetization    =   127.86 Bohr mag/cell

     iteration # 15     ecut=    90.00 Ry     beta= 0.20
     Davidson diagonalization with overlap

---- Real-time Memory Report at c_bands before calling an iterative solver
          1590 MiB given to the printing process from OS
           848 MiB allocation reported by mallinfo(arena+hblkhd)
        357223 MiB available memory on the node where the printing process lives
------------------
     ethr =  3.49E-07,  avg # of iterations =  2.4

     negative rho (up, down):  0.000E+00 2.902E-03

     total cpu time spent up to now is     3530.1 secs

     total energy              =  -17780.54588199 Ry
     estimated scf accuracy    <       0.01294234 Ry

     total magnetization       =   120.45 Bohr mag/cell
     absolute magnetization    =   127.87 Bohr mag/cell

     iteration # 16     ecut=    90.00 Ry     beta= 0.20
     Davidson diagonalization with overlap

---- Real-time Memory Report at c_bands before calling an iterative solver
          1590 MiB given to the printing process from OS
           848 MiB allocation reported by mallinfo(arena+hblkhd)
        357221 MiB available memory on the node where the printing process lives
------------------
     ethr =  3.49E-07,  avg # of iterations =  1.5

     negative rho (up, down):  0.000E+00 2.818E-03

     total cpu time spent up to now is     3732.3 secs

     total energy              =  -17780.54702802 Ry
     estimated scf accuracy    <       0.00305471 Ry

     total magnetization       =   120.34 Bohr mag/cell
     absolute magnetization    =   127.71 Bohr mag/cell

     iteration # 17     ecut=    90.00 Ry     beta= 0.20
     Davidson diagonalization with overlap

---- Real-time Memory Report at c_bands before calling an iterative solver
          1590 MiB given to the printing process from OS
           848 MiB allocation reported by mallinfo(arena+hblkhd)
        357211 MiB available memory on the node where the printing process lives
------------------
     ethr =  3.49E-07,  avg # of iterations =  3.8

     negative rho (up, down):  0.000E+00 2.685E-03

     total cpu time spent up to now is     3982.3 secs

     total energy              =  -17780.54829609 Ry
     estimated scf accuracy    <       0.00632050 Ry

     total magnetization       =   120.40 Bohr mag/cell
     absolute magnetization    =   127.55 Bohr mag/cell

     iteration # 18     ecut=    90.00 Ry     beta= 0.20
     Davidson diagonalization with overlap

---- Real-time Memory Report at c_bands before calling an iterative solver
          1590 MiB given to the printing process from OS
           848 MiB allocation reported by mallinfo(arena+hblkhd)
        357208 MiB available memory on the node where the printing process lives
------------------
     ethr =  3.49E-07,  avg # of iterations =  2.4

     negative rho (up, down):  0.000E+00 2.691E-03

     total cpu time spent up to now is     4207.3 secs

     total energy              =  -17780.54822473 Ry
     estimated scf accuracy    <       0.00217151 Ry

     total magnetization       =   120.21 Bohr mag/cell
     absolute magnetization    =   127.24 Bohr mag/cell

     iteration # 19     ecut=    90.00 Ry     beta= 0.20
     Davidson diagonalization with overlap

---- Real-time Memory Report at c_bands before calling an iterative solver
          1590 MiB given to the printing process from OS
           848 MiB allocation reported by mallinfo(arena+hblkhd)
        357194 MiB available memory on the node where the printing process lives
------------------
     ethr =  2.51E-07,  avg # of iterations =  1.9

     negative rho (up, down):  0.000E+00 2.683E-03

     total cpu time spent up to now is     4416.5 secs

     total energy              =  -17780.54839535 Ry
     estimated scf accuracy    <       0.00064444 Ry

     total magnetization       =   120.17 Bohr mag/cell
     absolute magnetization    =   127.18 Bohr mag/cell

     iteration # 20     ecut=    90.00 Ry     beta= 0.20
     Davidson diagonalization with overlap

---- Real-time Memory Report at c_bands before calling an iterative solver
          1590 MiB given to the printing process from OS
           848 MiB allocation reported by mallinfo(arena+hblkhd)
        357182 MiB available memory on the node where the printing process lives
------------------
     ethr =  7.46E-08,  avg # of iterations =  2.7

     negative rho (up, down):  0.000E+00 2.677E-03

     total cpu time spent up to now is     4630.1 secs

     total energy              =  -17780.54834897 Ry
     estimated scf accuracy    <       0.00068283 Ry

     total magnetization       =   120.14 Bohr mag/cell
     absolute magnetization    =   127.14 Bohr mag/cell

     iteration # 21     ecut=    90.00 Ry     beta= 0.20
     Davidson diagonalization with overlap

---- Real-time Memory Report at c_bands before calling an iterative solver
          1590 MiB given to the printing process from OS
           848 MiB allocation reported by mallinfo(arena+hblkhd)
        357184 MiB available memory on the node where the printing process lives
------------------
     ethr =  7.46E-08,  avg # of iterations =  3.4

     negative rho (up, down):  0.000E+00 2.711E-03

     total cpu time spent up to now is     4859.9 secs

     total energy              =  -17780.54845584 Ry
     estimated scf accuracy    <       0.00033811 Ry

     total magnetization       =   120.06 Bohr mag/cell
     absolute magnetization    =   127.03 Bohr mag/cell

     iteration # 22     ecut=    90.00 Ry     beta= 0.20
     Davidson diagonalization with overlap

---- Real-time Memory Report at c_bands before calling an iterative solver
          1590 MiB given to the printing process from OS
           848 MiB allocation reported by mallinfo(arena+hblkhd)
        357147 MiB available memory on the node where the printing process lives
------------------
     ethr =  3.91E-08,  avg # of iterations =  4.5

     negative rho (up, down):  0.000E+00 2.665E-03

     total cpu time spent up to now is     5126.5 secs

     total energy              =  -17780.54849661 Ry
     estimated scf accuracy    <       0.00069306 Ry

     total magnetization       =   119.90 Bohr mag/cell
     absolute magnetization    =   126.86 Bohr mag/cell

     iteration # 23     ecut=    90.00 Ry     beta= 0.20
     Davidson diagonalization with overlap

---- Real-time Memory Report at c_bands before calling an iterative solver
          1590 MiB given to the printing process from OS
           848 MiB allocation reported by mallinfo(arena+hblkhd)
        357125 MiB available memory on the node where the printing process lives
------------------
     ethr =  3.91E-08,  avg # of iterations =  3.1

     negative rho (up, down):  0.000E+00 2.670E-03

     total cpu time spent up to now is     5357.4 secs

     total energy              =  -17780.54856864 Ry
     estimated scf accuracy    <       0.00022574 Ry

     total magnetization       =   119.90 Bohr mag/cell
     absolute magnetization    =   126.83 Bohr mag/cell

     iteration # 24     ecut=    90.00 Ry     beta= 0.20
     Davidson diagonalization with overlap

---- Real-time Memory Report at c_bands before calling an iterative solver
          1590 MiB given to the printing process from OS
           848 MiB allocation reported by mallinfo(arena+hblkhd)
        357099 MiB available memory on the node where the printing process lives
------------------
     ethr =  2.61E-08,  avg # of iterations =  3.7

     negative rho (up, down):  0.000E+00 2.664E-03

     total cpu time spent up to now is     5590.8 secs

     total energy              =  -17780.54860456 Ry
     estimated scf accuracy    <       0.00009905 Ry

     total magnetization       =   119.83 Bohr mag/cell
     absolute magnetization    =   126.74 Bohr mag/cell

     iteration # 25     ecut=    90.00 Ry     beta= 0.20
     Davidson diagonalization with overlap

---- Real-time Memory Report at c_bands before calling an iterative solver
          1590 MiB given to the printing process from OS
           848 MiB allocation reported by mallinfo(arena+hblkhd)
        357092 MiB available memory on the node where the printing process lives
------------------
     ethr =  1.15E-08,  avg # of iterations =  1.8

     negative rho (up, down):  0.000E+00 2.663E-03

     total cpu time spent up to now is     5800.3 secs

     total energy              =  -17780.54859921 Ry
     estimated scf accuracy    <       0.00004583 Ry

     total magnetization       =   119.80 Bohr mag/cell
     absolute magnetization    =   126.71 Bohr mag/cell

     iteration # 26     ecut=    90.00 Ry     beta= 0.20
     Davidson diagonalization with overlap

---- Real-time Memory Report at c_bands before calling an iterative solver
          1590 MiB given to the printing process from OS
           848 MiB allocation reported by mallinfo(arena+hblkhd)
        357087 MiB available memory on the node where the printing process lives
------------------
     ethr =  5.30E-09,  avg # of iterations =  2.6

     negative rho (up, down):  0.000E+00 2.662E-03

     total cpu time spent up to now is     6035.7 secs

     total energy              =  -17780.54860532 Ry
     estimated scf accuracy    <       0.00000665 Ry

     total magnetization       =   119.77 Bohr mag/cell
     absolute magnetization    =   126.66 Bohr mag/cell

     iteration # 27     ecut=    90.00 Ry     beta= 0.20
     Davidson diagonalization with overlap

---- Real-time Memory Report at c_bands before calling an iterative solver
          1590 MiB given to the printing process from OS
           848 MiB allocation reported by mallinfo(arena+hblkhd)
        357066 MiB available memory on the node where the printing process lives
------------------
     ethr =  7.70E-10,  avg # of iterations =  3.6

     negative rho (up, down):  0.000E+00 2.659E-03

     total cpu time spent up to now is     6271.4 secs

     total energy              =  -17780.54860621 Ry
     estimated scf accuracy    <       0.00000346 Ry

     total magnetization       =   119.76 Bohr mag/cell
     absolute magnetization    =   126.65 Bohr mag/cell

     iteration # 28     ecut=    90.00 Ry     beta= 0.20
     Davidson diagonalization with overlap

---- Real-time Memory Report at c_bands before calling an iterative solver
          1590 MiB given to the printing process from OS
           848 MiB allocation reported by mallinfo(arena+hblkhd)
        357058 MiB available memory on the node where the printing process lives
------------------
     ethr =  4.01E-10,  avg # of iterations =  2.6

     negative rho (up, down):  0.000E+00 2.657E-03

     total cpu time spent up to now is     6491.4 secs

     total energy              =  -17780.54860657 Ry
     estimated scf accuracy    <       0.00000350 Ry

     total magnetization       =   119.75 Bohr mag/cell
     absolute magnetization    =   126.65 Bohr mag/cell

     iteration # 29     ecut=    90.00 Ry     beta= 0.20
     Davidson diagonalization with overlap

---- Real-time Memory Report at c_bands before calling an iterative solver
          1590 MiB given to the printing process from OS
           848 MiB allocation reported by mallinfo(arena+hblkhd)
        357045 MiB available memory on the node where the printing process lives
------------------
     ethr =  4.01E-10,  avg # of iterations =  1.3

     negative rho (up, down):  0.000E+00 2.656E-03

     total cpu time spent up to now is     6691.1 secs

     total energy              =  -17780.54860662 Ry
     estimated scf accuracy    <       0.00000239 Ry

     total magnetization       =   119.76 Bohr mag/cell
     absolute magnetization    =   126.65 Bohr mag/cell

     iteration # 30     ecut=    90.00 Ry     beta= 0.20
     Davidson diagonalization with overlap

---- Real-time Memory Report at c_bands before calling an iterative solver
          1590 MiB given to the printing process from OS
           848 MiB allocation reported by mallinfo(arena+hblkhd)
        357046 MiB available memory on the node where the printing process lives
------------------
     ethr =  2.76E-10,  avg # of iterations =  1.9

     negative rho (up, down):  0.000E+00 2.652E-03

     total cpu time spent up to now is     6897.6 secs

     total energy              =  -17780.54860683 Ry
     estimated scf accuracy    <       0.00000325 Ry

     total magnetization       =   119.75 Bohr mag/cell
     absolute magnetization    =   126.64 Bohr mag/cell

     iteration # 31     ecut=    90.00 Ry     beta= 0.20
     Davidson diagonalization with overlap

---- Real-time Memory Report at c_bands before calling an iterative solver
          1590 MiB given to the printing process from OS
           848 MiB allocation reported by mallinfo(arena+hblkhd)
        357037 MiB available memory on the node where the printing process lives
------------------
     ethr =  2.76E-10,  avg # of iterations =  2.6

     negative rho (up, down):  0.000E+00 2.652E-03

     total cpu time spent up to now is     7120.3 secs

     total energy              =  -17780.54860710 Ry
     estimated scf accuracy    <       0.00000068 Ry

     total magnetization       =   119.75 Bohr mag/cell
     absolute magnetization    =   126.64 Bohr mag/cell

     iteration # 32     ecut=    90.00 Ry     beta= 0.20
     Davidson diagonalization with overlap

---- Real-time Memory Report at c_bands before calling an iterative solver
          1590 MiB given to the printing process from OS
           848 MiB allocation reported by mallinfo(arena+hblkhd)
        357024 MiB available memory on the node where the printing process lives
------------------
     ethr =  7.89E-11,  avg # of iterations =  1.8

     negative rho (up, down):  0.000E+00 2.651E-03

     total cpu time spent up to now is     7325.1 secs

     total energy              =  -17780.54860714 Ry
     estimated scf accuracy    <       0.00000027 Ry

     total magnetization       =   119.76 Bohr mag/cell
     absolute magnetization    =   126.64 Bohr mag/cell

     iteration # 33     ecut=    90.00 Ry     beta= 0.20
     Davidson diagonalization with overlap

---- Real-time Memory Report at c_bands before calling an iterative solver
          1590 MiB given to the printing process from OS
           848 MiB allocation reported by mallinfo(arena+hblkhd)
        357015 MiB available memory on the node where the printing process lives
------------------
     ethr =  3.15E-11,  avg # of iterations =  2.8

     negative rho (up, down):  0.000E+00 2.651E-03

     total cpu time spent up to now is     7542.2 secs

     total energy              =  -17780.54860716 Ry
     estimated scf accuracy    <       0.00000013 Ry

     total magnetization       =   119.75 Bohr mag/cell
     absolute magnetization    =   126.64 Bohr mag/cell

     iteration # 34     ecut=    90.00 Ry     beta= 0.20
     Davidson diagonalization with overlap

---- Real-time Memory Report at c_bands before calling an iterative solver
          1590 MiB given to the printing process from OS
           848 MiB allocation reported by mallinfo(arena+hblkhd)
        357009 MiB available memory on the node where the printing process lives
------------------
     ethr =  1.52E-11,  avg # of iterations =  2.6

     negative rho (up, down):  0.000E+00 2.651E-03

     total cpu time spent up to now is     7757.3 secs

     total energy              =  -17780.54860718 Ry
     estimated scf accuracy    <       0.00000008 Ry

     total magnetization       =   119.75 Bohr mag/cell
     absolute magnetization    =   126.64 Bohr mag/cell

     iteration # 35     ecut=    90.00 Ry     beta= 0.20
     Davidson diagonalization with overlap

---- Real-time Memory Report at c_bands before calling an iterative solver
          1590 MiB given to the printing process from OS
           848 MiB allocation reported by mallinfo(arena+hblkhd)
        356988 MiB available memory on the node where the printing process lives
------------------
     ethr =  9.64E-12,  avg # of iterations =  2.0

     negative rho (up, down):  0.000E+00 2.651E-03

     total cpu time spent up to now is     7964.8 secs

     total energy              =  -17780.54860720 Ry
     estimated scf accuracy    <       0.00000005 Ry

     total magnetization       =   119.75 Bohr mag/cell
     absolute magnetization    =   126.64 Bohr mag/cell

     iteration # 36     ecut=    90.00 Ry     beta= 0.20
     Davidson diagonalization with overlap

---- Real-time Memory Report at c_bands before calling an iterative solver
          1590 MiB given to the printing process from OS
           848 MiB allocation reported by mallinfo(arena+hblkhd)
        356972 MiB available memory on the node where the printing process lives
------------------
     ethr =  6.07E-12,  avg # of iterations =  2.3

     negative rho (up, down):  0.000E+00 2.651E-03

     total cpu time spent up to now is     8175.1 secs

     total energy              =  -17780.54860720 Ry
     estimated scf accuracy    <       0.00000014 Ry

     total magnetization       =   119.76 Bohr mag/cell
     absolute magnetization    =   126.64 Bohr mag/cell

     iteration # 37     ecut=    90.00 Ry     beta= 0.20
     Davidson diagonalization with overlap

---- Real-time Memory Report at c_bands before calling an iterative solver
          1590 MiB given to the printing process from OS
           848 MiB allocation reported by mallinfo(arena+hblkhd)
        356954 MiB available memory on the node where the printing process lives
------------------
     ethr =  6.07E-12,  avg # of iterations =  1.4

     negative rho (up, down):  0.000E+00 2.651E-03

     total cpu time spent up to now is     8380.1 secs

     total energy              =  -17780.54860721 Ry
     estimated scf accuracy    <       0.00000006 Ry

     total magnetization       =   119.76 Bohr mag/cell
     absolute magnetization    =   126.64 Bohr mag/cell

     iteration # 38     ecut=    90.00 Ry     beta= 0.20
     Davidson diagonalization with overlap

---- Real-time Memory Report at c_bands before calling an iterative solver
          1590 MiB given to the printing process from OS
           848 MiB allocation reported by mallinfo(arena+hblkhd)
        356937 MiB available memory on the node where the printing process lives
------------------
     ethr =  6.07E-12,  avg # of iterations =  1.0

     negative rho (up, down):  0.000E+00 2.651E-03

     total cpu time spent up to now is     8566.1 secs

     total energy              =  -17780.54860723 Ry
     estimated scf accuracy    <       0.00000003 Ry

     total magnetization       =   119.76 Bohr mag/cell
     absolute magnetization    =   126.64 Bohr mag/cell

     iteration # 39     ecut=    90.00 Ry     beta= 0.20
     Davidson diagonalization with overlap

---- Real-time Memory Report at c_bands before calling an iterative solver
          1590 MiB given to the printing process from OS
           848 MiB allocation reported by mallinfo(arena+hblkhd)
        356928 MiB available memory on the node where the printing process lives
------------------
     ethr =  3.48E-12,  avg # of iterations =  2.0

     negative rho (up, down):  0.000E+00 2.650E-03

     total cpu time spent up to now is     8785.8 secs

     total energy              =  -17780.54860724 Ry
     estimated scf accuracy    <       0.00000004 Ry

     total magnetization       =   119.76 Bohr mag/cell
     absolute magnetization    =   126.64 Bohr mag/cell

     iteration # 40     ecut=    90.00 Ry     beta= 0.20
     Davidson diagonalization with overlap

---- Real-time Memory Report at c_bands before calling an iterative solver
          1590 MiB given to the printing process from OS
           848 MiB allocation reported by mallinfo(arena+hblkhd)
        356921 MiB available memory on the node where the printing process lives
------------------
     ethr =  3.48E-12,  avg # of iterations =  2.1

     negative rho (up, down):  0.000E+00 2.651E-03

     total cpu time spent up to now is     8995.2 secs

     total energy              =  -17780.54860724 Ry
     estimated scf accuracy    <       0.00000001 Ry

     total magnetization       =   119.76 Bohr mag/cell
     absolute magnetization    =   126.64 Bohr mag/cell

     iteration # 41     ecut=    90.00 Ry     beta= 0.20
     Davidson diagonalization with overlap

---- Real-time Memory Report at c_bands before calling an iterative solver
          1590 MiB given to the printing process from OS
           848 MiB allocation reported by mallinfo(arena+hblkhd)
        356902 MiB available memory on the node where the printing process lives
------------------
     ethr =  1.65E-12,  avg # of iterations =  2.2

     negative rho (up, down):  0.000E+00 2.650E-03

     total cpu time spent up to now is     9214.5 secs

     total energy              =  -17780.54860724 Ry
     estimated scf accuracy    <       0.00000003 Ry

     total magnetization       =   119.76 Bohr mag/cell
     absolute magnetization    =   126.64 Bohr mag/cell

     iteration # 42     ecut=    90.00 Ry     beta= 0.20
     Davidson diagonalization with overlap

---- Real-time Memory Report at c_bands before calling an iterative solver
          1590 MiB given to the printing process from OS
           848 MiB allocation reported by mallinfo(arena+hblkhd)
        356875 MiB available memory on the node where the printing process lives
------------------
     ethr =  1.65E-12,  avg # of iterations =  1.8

     negative rho (up, down):  0.000E+00 2.651E-03

     Magnetic moment per site  (integrated on atomic sphere of radius R)
     atom   1 (R=0.119)  charge= 14.4212  magn=  2.2722
     atom   2 (R=0.119)  charge= 14.4213  magn=  2.2722
     atom   3 (R=0.119)  charge= 14.4213  magn=  2.2722
     atom   4 (R=0.119)  charge= 14.4213  magn=  2.2722
     atom   5 (R=0.119)  charge= 14.4213  magn=  2.2722
     atom   6 (R=0.119)  charge= 14.4213  magn=  2.2722
     atom   7 (R=0.119)  charge= 14.4213  magn=  2.2722
     atom   8 (R=0.119)  charge= 14.4213  magn=  2.2722
     atom   9 (R=0.119)  charge= 14.4213  magn=  2.2722
     atom  10 (R=0.119)  charge= 14.4213  magn=  2.2722
     atom  11 (R=0.119)  charge= 14.4213  magn=  2.2722
     atom  12 (R=0.119)  charge= 14.4213  magn=  2.2722
     atom  13 (R=0.119)  charge= 14.4213  magn=  2.2722
     atom  14 (R=0.119)  charge= 14.4213  magn=  2.2722
     atom  15 (R=0.119)  charge= 14.4213  magn=  2.2722
     atom  16 (R=0.119)  charge= 14.4213  magn=  2.2722
     atom  17 (R=0.119)  charge= 14.4213  magn=  2.2722
     atom  18 (R=0.119)  charge= 14.4213  magn=  2.2722
     atom  19 (R=0.119)  charge= 14.4213  magn=  2.2722
     atom  20 (R=0.119)  charge= 14.4213  magn=  2.2722
     atom  21 (R=0.119)  charge= 14.4213  magn=  2.2722
     atom  22 (R=0.119)  charge= 14.4213  magn=  2.2722
     atom  23 (R=0.119)  charge= 14.4213  magn=  2.2722
     atom  24 (R=0.119)  charge= 14.4213  magn=  2.2722
     atom  25 (R=0.119)  charge= 14.4213  magn=  2.2722
     atom  26 (R=0.119)  charge= 14.4213  magn=  2.2722
     atom  27 (R=0.119)  charge= 14.4213  magn=  2.2720
     atom  28 (R=0.119)  charge= 14.4213  magn=  2.2720
     atom  29 (R=0.119)  charge= 14.4213  magn=  2.2720
     atom  30 (R=0.119)  charge= 14.4213  magn=  2.2722
     atom  31 (R=0.119)  charge= 14.4213  magn=  2.2722
     atom  32 (R=0.119)  charge= 14.4213  magn=  2.2722
     atom  33 (R=0.119)  charge= 14.4213  magn=  2.2720
     atom  34 (R=0.119)  charge= 14.4213  magn=  2.2722
     atom  35 (R=0.119)  charge= 14.4213  magn=  2.2720
     atom  36 (R=0.119)  charge= 14.4213  magn=  2.2722
     atom  37 (R=0.119)  charge= 14.4213  magn=  2.2722
     atom  38 (R=0.119)  charge= 14.4213  magn=  2.2722
     atom  39 (R=0.119)  charge= 14.4213  magn=  2.2722
     atom  40 (R=0.119)  charge= 14.4213  magn=  2.2722
     atom  41 (R=0.119)  charge= 14.4213  magn=  2.2722
     atom  42 (R=0.119)  charge= 14.4213  magn=  2.2722
     atom  43 (R=0.119)  charge= 14.4213  magn=  2.2722
     atom  44 (R=0.119)  charge= 14.4213  magn=  2.2722
     atom  45 (R=0.119)  charge= 14.4213  magn=  2.2720
     atom  46 (R=0.119)  charge= 14.4213  magn=  2.2722
     atom  47 (R=0.119)  charge= 14.4213  magn=  2.2720
     atom  48 (R=0.119)  charge= 14.4213  magn=  2.2722
     atom  49 (R=0.119)  charge= 14.4213  magn=  2.2722
     atom  50 (R=0.119)  charge= 14.4213  magn=  2.2722
     atom  51 (R=0.119)  charge= 14.4213  magn=  2.2720
     atom  52 (R=0.119)  charge= 14.4213  magn=  2.2722
     atom  53 (R=0.119)  charge= 14.4213  magn=  2.2720
     atom  54 (R=0.119)  charge= 14.4213  magn=  2.2722

     total cpu time spent up to now is     9421.9 secs

     End of self-consistent calculation

 ------ SPIN UP ------------


          k = 0.0000 0.0000 0.0000 ( 62093 PWs)   bands (ev):

   -70.5969 -70.5646 -70.5646 -70.5645 -70.5645 -70.5645 -70.5645 -70.5466
   -70.5466 -70.5466 -70.5466 -70.5466 -70.5466 -70.5466 -70.5466 -70.5466
   -70.5466 -70.5466 -70.5466 -70.5360 -70.5360 -70.5360 -70.5360 -70.5360
   -70.5360 -70.5360 -70.5360 -70.5214 -70.5214 -70.5214 -70.5214 -70.5214
   -70.5214 -70.5214 -70.5213 -70.5174 -70.5174 -70.5174 -70.5174 -70.5174
   -70.5173 -70.5173 -70.5173 -70.5173 -70.5173 -70.5173 -70.5173 -70.5060
   -70.5060 -70.5060 -70.5060 -70.5060 -70.5060 -70.4800 -36.7586 -36.7586
   -36.7586 -36.7586 -36.7586 -36.7586 -36.7586 -36.7586 -36.7586 -36.7586
   -36.7586 -36.7586 -36.7068 -36.7068 -36.7068 -36.7068 -36.7068 -36.7068
   -36.7068 -36.7068 -36.6942 -36.6942 -36.6942 -36.6942 -36.6942 -36.6942
   -36.6942 -36.6942 -36.6942 -36.6942 -36.6942 -36.6942 -36.6835 -36.6835
   -36.6835 -36.6714 -36.6714 -36.6714 -36.6714 -36.6714 -36.6714 -36.6714
   -36.6714 -36.6714 -36.6714 -36.6714 -36.6714 -36.6714 -36.6714 -36.6714
   -36.6714 -36.6599 -36.6599 -36.6599 -36.6599 -36.6599 -36.6599 -36.6152
   -36.6152 -36.6152 -36.6152 -36.6152 -36.6152 -36.6152 -36.6152 -36.6152
   -36.6152 -36.6152 -36.6152 -36.5790 -36.5790 -36.5790 -36.5790 -36.5790
   -36.5790 -36.5790 -36.5790 -36.5790 -36.5790 -36.5790 -36.5790 -36.5293
   -36.5293 -36.5293 -36.5293 -36.5293 -36.5293 -36.5135 -36.5135 -36.5135
   -36.5135 -36.5135 -36.5135 -36.5135 -36.5135 -36.5135 -36.5135 -36.5135
   -36.5135 -36.5025 -36.5025 -36.5025 -36.5025 -36.5025 -36.5025 -36.5025
   -36.5025 -36.5025 -36.5025 -36.5025 -36.5025 -36.5025 -36.5024 -36.5024
[...]
     atom   48 type  1   force =     0.00000004   -0.00000000    0.00000004
     atom   49 type  1   force =    -0.00000025   -0.00000025    0.00000000
     atom   50 type  1   force =     0.00000004    0.00000004   -0.00000004
     atom   51 type  1   force =     0.00000034    0.00000034   -0.00000034
     atom   52 type  1   force =     0.00000004    0.00000004   -0.00000000
     atom   53 type  1   force =     0.00000034    0.00000034    0.00000034
     atom   54 type  1   force =     0.00000004    0.00000004    0.00000004
     The Hubbard contrib.    to forces
     atom    1 type  1   force =     0.00000000    0.00000000    0.00000000
     atom    2 type  1   force =     0.00000000    0.00000000    0.00000000
     atom    3 type  1   force =     0.00000000    0.00000000    0.00000000
     atom    4 type  1   force =     0.00000000    0.00000000    0.00000000
     atom    5 type  1   force =     0.00000000    0.00000000    0.00000000
     atom    6 type  1   force =     0.00000000    0.00000000    0.00000000
     atom    7 type  1   force =     0.00000000    0.00000000    0.00000000
     atom    8 type  1   force =     0.00000000    0.00000000    0.00000000
     atom    9 type  1   force =     0.00000000    0.00000000    0.00000000
     atom   10 type  1   force =     0.00000000    0.00000000    0.00000000
     atom   11 type  1   force =     0.00000000    0.00000000    0.00000000
     atom   12 type  1   force =     0.00000000    0.00000000    0.00000000
     atom   13 type  1   force =     0.00000000    0.00000000    0.00000000
     atom   14 type  1   force =     0.00000000    0.00000000    0.00000000
     atom   15 type  1   force =     0.00000000    0.00000000    0.00000000
     atom   16 type  1   force =     0.00000000    0.00000000    0.00000000
     atom   17 type  1   force =     0.00000000    0.00000000    0.00000000
     atom   18 type  1   force =     0.00000000    0.00000000    0.00000000
     atom   19 type  1   force =     0.00000000    0.00000000    0.00000000
     atom   20 type  1   force =     0.00000000    0.00000000    0.00000000
     atom   21 type  1   force =     0.00000000    0.00000000    0.00000000
     atom   22 type  1   force =     0.00000000    0.00000000    0.00000000
     atom   23 type  1   force =     0.00000000    0.00000000    0.00000000
     atom   24 type  1   force =     0.00000000    0.00000000    0.00000000
     atom   25 type  1   force =     0.00000000    0.00000000    0.00000000
     atom   26 type  1   force =     0.00000000    0.00000000    0.00000000
     atom   27 type  1   force =     0.00000000    0.00000000    0.00000000
     atom   28 type  1   force =     0.00000000    0.00000000    0.00000000
     atom   29 type  1   force =     0.00000000    0.00000000    0.00000000
     atom   30 type  1   force =     0.00000000    0.00000000    0.00000000
     atom   31 type  1   force =     0.00000000    0.00000000    0.00000000
     atom   32 type  1   force =     0.00000000    0.00000000    0.00000000
     atom   33 type  1   force =     0.00000000    0.00000000    0.00000000
     atom   34 type  1   force =     0.00000000    0.00000000    0.00000000
     atom   35 type  1   force =     0.00000000    0.00000000    0.00000000
     atom   36 type  1   force =     0.00000000    0.00000000    0.00000000
     atom   37 type  1   force =     0.00000000    0.00000000    0.00000000
     atom   38 type  1   force =     0.00000000    0.00000000    0.00000000
     atom   39 type  1   force =     0.00000000    0.00000000    0.00000000
     atom   40 type  1   force =     0.00000000    0.00000000    0.00000000
     atom   41 type  1   force =     0.00000000    0.00000000    0.00000000
     atom   42 type  1   force =     0.00000000    0.00000000    0.00000000
     atom   43 type  1   force =     0.00000000    0.00000000    0.00000000
     atom   44 type  1   force =     0.00000000    0.00000000    0.00000000
     atom   45 type  1   force =     0.00000000    0.00000000    0.00000000
     atom   46 type  1   force =     0.00000000    0.00000000    0.00000000
     atom   47 type  1   force =     0.00000000    0.00000000    0.00000000
     atom   48 type  1   force =     0.00000000    0.00000000    0.00000000
     atom   49 type  1   force =     0.00000000    0.00000000    0.00000000
     atom   50 type  1   force =     0.00000000    0.00000000    0.00000000
     atom   51 type  1   force =     0.00000000    0.00000000    0.00000000
     atom   52 type  1   force =     0.00000000    0.00000000    0.00000000
     atom   53 type  1   force =     0.00000000    0.00000000    0.00000000
     atom   54 type  1   force =     0.00000000    0.00000000    0.00000000
     The SCF correction term to forces
     atom    1 type  1   force =     0.00000000   -0.00000000    0.00000000
     atom    2 type  1   force =     0.00000277    0.00000277    0.00000277
     atom    3 type  1   force =     0.00000000   -0.00000000   -0.00000002
     atom    4 type  1   force =     0.00000511    0.00000511   -0.00000000
     atom    5 type  1   force =     0.00000000   -0.00000000    0.00000002
     atom    6 type  1   force =     0.00000277    0.00000277   -0.00000277
     atom    7 type  1   force =     0.00000000   -0.00000002    0.00000000
     atom    8 type  1   force =     0.00000511    0.00000000    0.00000511
     atom    9 type  1   force =     0.00000000   -0.00000367   -0.00000367
     atom   10 type  1   force =     0.00002613    0.00000000   -0.00000000
     atom   11 type  1   force =     0.00000000   -0.00000367    0.00000367
     atom   12 type  1   force =     0.00000511    0.00000000   -0.00000511
     atom   13 type  1   force =     0.00000000    0.00000002    0.00000000
     atom   14 type  1   force =     0.00000277   -0.00000277    0.00000277
     atom   15 type  1   force =     0.00000000    0.00000367   -0.00000367
     atom   16 type  1   force =     0.00000511   -0.00000511   -0.00000000
     atom   17 type  1   force =     0.00000000    0.00000367    0.00000367
     atom   18 type  1   force =     0.00000277   -0.00000277   -0.00000277
     atom   19 type  1   force =    -0.00000002    0.00000000    0.00000000
     atom   20 type  1   force =     0.00000000    0.00000511    0.00000511
     atom   21 type  1   force =    -0.00000367    0.00000000   -0.00000367
     atom   22 type  1   force =    -0.00000000    0.00002613   -0.00000000
     atom   23 type  1   force =    -0.00000367    0.00000000    0.00000367
     atom   24 type  1   force =     0.00000000    0.00000511   -0.00000511
     atom   25 type  1   force =    -0.00000367   -0.00000367    0.00000000
     atom   26 type  1   force =     0.00000000    0.00000000    0.00002613
     atom   27 type  1   force =     0.00001644    0.00001644    0.00001644
     atom   28 type  1   force =    -0.00000000   -0.00000000   -0.00000000
     atom   29 type  1   force =     0.00001644    0.00001644   -0.00001644
     atom   30 type  1   force =     0.00000000    0.00000000   -0.00002613
     atom   31 type  1   force =    -0.00000367    0.00000367    0.00000000
     atom   32 type  1   force =     0.00000000   -0.00000511    0.00000511
     atom   33 type  1   force =     0.00001644   -0.00001644    0.00001644
     atom   34 type  1   force =    -0.00000000   -0.00002613   -0.00000000
     atom   35 type  1   force =     0.00001644   -0.00001644   -0.00001644
     atom   36 type  1   force =     0.00000000   -0.00000511   -0.00000511
     atom   37 type  1   force =     0.00000002   -0.00000000    0.00000000
     atom   38 type  1   force =    -0.00000277    0.00000277    0.00000277
     atom   39 type  1   force =     0.00000367    0.00000000   -0.00000367
     atom   40 type  1   force =    -0.00000511    0.00000511   -0.00000000
     atom   41 type  1   force =     0.00000367   -0.00000000    0.00000367
     atom   42 type  1   force =    -0.00000277    0.00000277   -0.00000277
     atom   43 type  1   force =     0.00000367   -0.00000367    0.00000000
     atom   44 type  1   force =    -0.00000511    0.00000000    0.00000511
     atom   45 type  1   force =    -0.00001644    0.00001644    0.00001644
     atom   46 type  1   force =    -0.00002613    0.00000000   -0.00000000
     atom   47 type  1   force =    -0.00001644    0.00001644   -0.00001644
     atom   48 type  1   force =    -0.00000511   -0.00000000   -0.00000511
     atom   49 type  1   force =     0.00000367    0.00000367    0.00000000
     atom   50 type  1   force =    -0.00000277   -0.00000277    0.00000277
     atom   51 type  1   force =    -0.00001644   -0.00001644    0.00001644
     atom   52 type  1   force =    -0.00000511   -0.00000511   -0.00000000
     atom   53 type  1   force =    -0.00001644   -0.00001644   -0.00001644
     atom   54 type  1   force =    -0.00000277   -0.00000277   -0.00000277

     Total force =     0.000024     Total SCF correction =     0.000108
     SCF correction compared to forces is large: reduce conv_thr to get better values


     Computing stress (Cartesian axis) and pressure


     negative rho (up, down):  0.000E+00 2.651E-03
          total   stress  (Ry/bohr**3)                   (kbar)     P=      -72.31
  -0.00049155   0.00000000   0.00000000          -72.31        0.00        0.00
   0.00000000  -0.00049155   0.00000000            0.00      -72.31        0.00
   0.00000000   0.00000000  -0.00049155            0.00        0.00      -72.31

     kinetic stress (kbar)  95424.19      0.00      0.00
                                0.00  95424.19      0.00
                                0.00      0.00  95424.19

     local   stress (kbar)  12107.66      0.00      0.00
                                0.00  12107.66      0.00
                                0.00      0.00  12107.66

     nonloc. stress (kbar) -26162.82      0.00      0.00
                                0.00 -26162.82      0.00
                                0.00      0.00 -26162.82

     hartree stress (kbar)  40798.21     -0.00      0.00
                               -0.00  40798.21     -0.00
                                0.00     -0.00  40798.21

     exc-cor stress (kbar) -13739.79     -0.00     -0.00
                               -0.00 -13739.79     -0.00
                               -0.00     -0.00 -13739.79

     corecor stress (kbar)  -2619.83      0.00     -0.00
                                0.00  -2619.83      0.00
                               -0.00      0.00  -2619.83

     ewald   stress (kbar)-105879.93      0.00      0.00
                                0.00-105879.93     -0.00
                                0.00     -0.00-105879.93

     hubbard stress (kbar)      0.00      0.00      0.00
                                0.00      0.00      0.00
                                0.00      0.00      0.00

     DFT-D   stress (kbar)      0.00      0.00      0.00
                                0.00      0.00      0.00
                                0.00      0.00      0.00

     XDM     stress (kbar)      0.00      0.00      0.00
                                0.00      0.00      0.00
                                0.00      0.00      0.00

     dft-nl  stress (kbar)      0.00      0.00      0.00
                                0.00      0.00      0.00
                                0.00      0.00      0.00

     TS-vdW  stress (kbar)      0.00      0.00      0.00
                                0.00      0.00      0.00
                                0.00      0.00      0.00

     MDB     stress (kbar)      0.00      0.00      0.00
                                0.00      0.00      0.00
                                0.00      0.00      0.00

     3D-RISM stress (kbar)      0.00      0.00      0.00
                                0.00      0.00      0.00
                                0.00      0.00      0.00


     BFGS Geometry Optimization
     Energy error            =      0.0E+00 Ry
     Gradient error          =      5.2E-06 Ry/Bohr

     bfgs converged in   1 scf cycles and   0 bfgs steps
     (criteria: energy <  1.0E-04 Ry, force <  1.0E-03 Ry/Bohr)

     End of BFGS Geometry Optimization

     Final energy             =  -17780.5486072426 Ry
Begin final coordinates

ATOMIC_POSITIONS (angstrom)
Fe               0.0000000000        0.0000000000        0.0000000000
Fe               1.4340500000        1.4340500000        1.4340500000
Fe               0.0000000000        0.0000000000        2.8681000000
Fe               1.4340500000        1.4340500000        4.3021500000
Fe               0.0000000000        0.0000000000        5.7362000000
Fe               1.4340500000        1.4340500000        7.1702500000
Fe               0.0000000000        2.8681000000        0.0000000000
Fe               1.4340500000        4.3021500000        1.4340500000
Fe               0.0000000000        2.8681000000        2.8681000000
Fe               1.4340500000        4.3021500000        4.3021500000
Fe               0.0000000000        2.8681000000        5.7362000000
Fe               1.4340500000        4.3021500000        7.1702500000
Fe               0.0000000000        5.7362000000        0.0000000000
Fe               1.4340500000        7.1702500000        1.4340500000
Fe               0.0000000000        5.7362000000        2.8681000000
Fe               1.4340500000        7.1702500000        4.3021500000
Fe               0.0000000000        5.7362000000        5.7362000000
Fe               1.4340500000        7.1702500000        7.1702500000
Fe               2.8681000000        0.0000000000        0.0000000000
Fe               4.3021500000        1.4340500000        1.4340500000
Fe               2.8681000000        0.0000000000        2.8681000000
Fe               4.3021500000        1.4340500000        4.3021500000
Fe               2.8681000000        0.0000000000        5.7362000000
Fe               4.3021500000        1.4340500000        7.1702500000
Fe               2.8681000000        2.8681000000        0.0000000000
Fe               4.3021500000        4.3021500000        1.4340500000
Fe               2.8681000000        2.8681000000        2.8681000000
Fe               4.3021500000        4.3021500000        4.3021500000
Fe               2.8681000000        2.8681000000        5.7362000000
Fe               4.3021500000        4.3021500000        7.1702500000
Fe               2.8681000000        5.7362000000        0.0000000000
Fe               4.3021500000        7.1702500000        1.4340500000
Fe               2.8681000000        5.7362000000        2.8681000000
Fe               4.3021500000        7.1702500000        4.3021500000
Fe               2.8681000000        5.7362000000        5.7362000000
Fe               4.3021500000        7.1702500000        7.1702500000
Fe               5.7362000000        0.0000000000        0.0000000000
Fe               7.1702500000        1.4340500000        1.4340500000
Fe               5.7362000000        0.0000000000        2.8681000000
Fe               7.1702500000        1.4340500000        4.3021500000
Fe               5.7362000000        0.0000000000        5.7362000000
Fe               7.1702500000        1.4340500000        7.1702500000
Fe               5.7362000000        2.8681000000        0.0000000000
Fe               7.1702500000        4.3021500000        1.4340500000
Fe               5.7362000000        2.8681000000        2.8681000000
Fe               7.1702500000        4.3021500000        4.3021500000
Fe               5.7362000000        2.8681000000        5.7362000000
Fe               7.1702500000        4.3021500000        7.1702500000
Fe               5.7362000000        5.7362000000        0.0000000000
Fe               7.1702500000        7.1702500000        1.4340500000
Fe               5.7362000000        5.7362000000        2.8681000000
Fe               7.1702500000        7.1702500000        4.3021500000
Fe               5.7362000000        5.7362000000        5.7362000000
Fe               7.1702500000        7.1702500000        7.1702500000
End final coordinates


     Message from routine punch:
     Nothing written, as per user request (disk_io='none')

     init_run     :     70.91s CPU     74.11s WALL (       1 calls)
     electrons    :   8898.37s CPU   9346.52s WALL (       1 calls)
     forces       :     35.74s CPU     37.34s WALL (       1 calls)
     stress       :    813.02s CPU    831.81s WALL (       1 calls)

     Called by init_run:
     wfcinit      :     66.16s CPU     68.69s WALL (       1 calls)
     wfcinit:atom :      0.29s CPU      0.54s WALL (      14 calls)
     wfcinit:wfcr :     63.58s CPU     65.53s WALL (      14 calls)
     potinit      :      1.77s CPU      2.09s WALL (       1 calls)
     hinit0       :      1.37s CPU      1.46s WALL (       1 calls)

     Called by electrons:
     c_bands      :   7628.26s CPU   8005.24s WALL (      42 calls)
     sum_band     :   1197.50s CPU   1255.61s WALL (      42 calls)
     v_of_rho     :     44.45s CPU     52.20s WALL (      43 calls)
     v_h          :      0.89s CPU      1.08s WALL (      43 calls)
     v_xc         :     45.39s CPU     53.26s WALL (      45 calls)
     newd         :     10.47s CPU     12.82s WALL (      43 calls)
     PAW_pot      :     11.00s CPU     12.46s WALL (      43 calls)
     mix_rho      :      1.78s CPU      2.24s WALL (      42 calls)

     Called by c_bands:
     init_us_2    :     89.12s CPU     90.84s WALL (    1218 calls)
     cegterg      :   7006.61s CPU   7300.37s WALL (     588 calls)

     Called by sum_band:
     sum_band:wei :      0.87s CPU      0.99s WALL (      42 calls)
     sum_band:loo :   1141.39s CPU   1188.81s WALL (      42 calls)
     sum_band:buf :     12.67s CPU     13.34s WALL (     588 calls)
     sum_band:ini :     28.47s CPU     28.77s WALL (     588 calls)
     sum_band:cal :    303.88s CPU    317.04s WALL (     588 calls)
     sum_band:bec :      3.56s CPU      3.62s WALL (     588 calls)
     addusdens    :     11.61s CPU     14.19s WALL (      42 calls)
                                        0.00s GPU  (      42 calls)
     addusd:skk   :      0.50s CPU      0.63s WALL (      42 calls)
                                        0.00s GPU  (      42 calls)

     Called by *egterg:
     cdiaghg      :    320.25s CPU    360.48s WALL (    2101 calls)
     cegterg:over :    658.43s CPU    681.00s WALL (    1513 calls)
     cegterg:upda :    414.96s CPU    433.59s WALL (    1513 calls)
     cegterg:last :    925.19s CPU    954.43s WALL (    1037 calls)
     cdiaghg:chol :     26.19s CPU     30.24s WALL (    2101 calls)
     cdiaghg:inve :     28.30s CPU     33.33s WALL (    2101 calls)
     cdiaghg:para :     67.40s CPU     82.11s WALL (    4202 calls)
     h_psi        :   3838.67s CPU   3979.51s WALL (    2115 calls)
     s_psi        :    609.70s CPU    616.55s WALL (    2115 calls)
     g_psi        :      8.98s CPU      9.11s WALL (    1513 calls)

     Called by h_psi:
     h_psi:calbec :    660.28s CPU    684.19s WALL (    2115 calls)
     vloc_psi     :   2541.44s CPU   2629.15s WALL (    2115 calls)
     add_vuspsi   :    612.99s CPU    619.92s WALL (    2115 calls)

     General routines
     calbec       :   1046.93s CPU   1093.23s WALL (    2773 calls)
     fft          :     26.32s CPU     32.22s WALL (    1113 calls)
     ffts         :      1.67s CPU      2.08s WALL (     170 calls)
     fftw         :   1665.26s CPU   1759.68s WALL ( 1611780 calls)
     interpolate  :      3.35s CPU      3.90s WALL (      86 calls)

     Parallel routines

     PAW routines
     PAW_pot      :     11.00s CPU     12.46s WALL (      43 calls)
     PAW_symme    :      0.71s CPU      0.93s WALL (      85 calls)

     PWSCF        :   9818.85s CPU  10292.06s WALL


   This run was terminated on:  16:16:32   1Jun2025            

=------------------------------------------------------------------------------=
   JOB DONE.
=------------------------------------------------------------------------------=
