
     Program PWSCF v.7.3.1 starts on 23May2025 at  8:58:34 

     This program is part of the open-source Quantum ESPRESSO suite
     for quantum simulation of materials; please cite
         "P. Giannozzi et al., J. Phys.:Condens. Matter 21 395502 (2009);
         "P. Giannozzi et al., J. Phys.:Condens. Matter 29 465901 (2017);
         "P. Giannozzi et al., J. Chem. Phys. 152 154105 (2020);
          URL http://www.quantum-espresso.org", 
     in publications or presentations arising from this work. More details at
     http://www.quantum-espresso.org/quote

     Parallel version (MPI & OpenMP), running on     128 processor cores
     Number of MPI processes:               128
     Threads/MPI process:                     1

     MPI processes distributed on     1 nodes
     449144 MiB available memory on the printing compute node when the environment starts

     Waiting for input...
     Reading input from standard input

     Current dimensions of program PWSCF are:
     Max number of different atomic species (ntypx) = 10
     Max number of k-points (npk) =  40000
     Max angular momentum in pseudopotentials (lmaxx) =  4
     file Fe.pbe-spn-kjpaw_psl.1.0.0.UPF: wavefunction(s)  3P 3D renormalized
     Found identity + (  0.1250  0.1250  0.1250) symmetry
     This is a supercell, fractional translations are disabled
     Message from routine setup:
     using ibrav=0 with symmetry is DISCOURAGED, use correct ibrav instead

     K-points division:     npool     =       4
     R & G space division:  proc/nbgrp/npool/nimage =      32
     Subspace diagonalization in iterative solution of the eigenvalue problem:
     one sub-group per band group will be used
     ELPA distributed-memory algorithm (size of sub-group:  5*  5 procs)


     Parallelization info
     --------------------
     sticks:   dense  smooth     PW     G-vecs:    dense   smooth      PW
     Min        1262     421    110               190864    36715    4958
     Max        1263     422    111               190869    36721    4963
     Sum       40413   13477   3545              6107759  1174959  158715

     Using Slab Decomposition



     bravais-lattice index     =            0
     lattice parameter (alat)  =      21.6797  a.u.
     unit-cell volume          =   10189.6541 (a.u.)^3
     number of atoms/cell      =          128
     number of atomic types    =            1
     number of electrons       =      2048.00
     number of Kohn-Sham states=         1229
     kinetic-energy cutoff     =      90.0000  Ry
     charge density cutoff     =    1080.0000  Ry
     scf convergence threshold =      1.0E-07
     mixing beta               =       0.2000
     number of iterations used =            8  plain     mixing
     Exchange-correlation= SLA  PW   PBX  PBC
                           (   1   4   3   4   0   0   0)

     celldm(1)=  21.679694  celldm(2)=   0.000000  celldm(3)=   0.000000
     celldm(4)=   0.000000  celldm(5)=   0.000000  celldm(6)=   0.000000

     crystal axes: (cart. coord. in units of alat)
               a(1) = (   1.000000   0.000000   0.000000 )  
               a(2) = (   0.000000   1.000000   0.000000 )  
               a(3) = (   0.000000   0.000000   1.000000 )  

     reciprocal axes: (cart. coord. in units 2 pi/alat)
               b(1) = (  1.000000  0.000000  0.000000 )  
               b(2) = (  0.000000  1.000000  0.000000 )  
               b(3) = (  0.000000  0.000000  1.000000 )  


     PseudoPot. # 1 for Fe read from file:
     ./pseudo/Fe.pbe-spn-kjpaw_psl.1.0.0.UPF
     MD5 check sum: fc81f059e5c5069939230b1155715ae8
     Pseudo is Projector augmented-wave + core cor, Zval = 16.0
     Generated using &quot;atomic&quot; code by A. Dal Corso  v.6.3
     Shape of augmentation charge: PSQ
     Using radial grid of 1191 points,  6 beta functions with: 
                l(1) =   0
                l(2) =   0
                l(3) =   1
                l(4) =   1
                l(5) =   2
                l(6) =   2
     Q(r) pseudized with 0 coefficients 


     atomic species   valence    mass     pseudopotential
     Fe               16.00    55.84500     Fe( 1.00)

     Starting magnetic structure 
     atomic species   magnetization
     Fe              0.400

     48 Sym. Ops., with inversion, found


                                    s                        frac. trans.

      isym =  1     identity                                     

 cryst.   s( 1) = (     1          0          0      )
                  (     0          1          0      )
                  (     0          0          1      )

 cart.    s( 1) = (  1.0000000  0.0000000  0.0000000 )
                  (  0.0000000  1.0000000  0.0000000 )
                  (  0.0000000  0.0000000  1.0000000 )


      isym =  2     180 deg rotation - cart. axis [0,0,1]        

 cryst.   s( 2) = (    -1          0          0      )
                  (     0         -1          0      )
                  (     0          0          1      )

 cart.    s( 2) = ( -1.0000000  0.0000000  0.0000000 )
                  (  0.0000000 -1.0000000  0.0000000 )
                  (  0.0000000  0.0000000  1.0000000 )


      isym =  3     180 deg rotation - cart. axis [0,1,0]        

 cryst.   s( 3) = (    -1          0          0      )
                  (     0          1          0      )
                  (     0          0         -1      )

 cart.    s( 3) = ( -1.0000000  0.0000000  0.0000000 )
                  (  0.0000000  1.0000000  0.0000000 )
                  (  0.0000000  0.0000000 -1.0000000 )


      isym =  4     180 deg rotation - cart. axis [1,0,0]        

 cryst.   s( 4) = (     1          0          0      )
                  (     0         -1          0      )
                  (     0          0         -1      )

 cart.    s( 4) = (  1.0000000  0.0000000  0.0000000 )
                  (  0.0000000 -1.0000000  0.0000000 )
                  (  0.0000000  0.0000000 -1.0000000 )


      isym =  5     180 deg rotation - cart. axis [1,1,0]        

 cryst.   s( 5) = (     0          1          0      )
                  (     1          0          0      )
                  (     0          0         -1      )

 cart.    s( 5) = (  0.0000000  1.0000000  0.0000000 )
                  (  1.0000000  0.0000000  0.0000000 )
                  (  0.0000000  0.0000000 -1.0000000 )


      isym =  6     180 deg rotation - cart. axis [1,-1,0]       

 cryst.   s( 6) = (     0         -1          0      )
                  (    -1          0          0      )
                  (     0          0         -1      )

 cart.    s( 6) = (  0.0000000 -1.0000000  0.0000000 )
                  ( -1.0000000  0.0000000  0.0000000 )
                  (  0.0000000  0.0000000 -1.0000000 )


      isym =  7      90 deg rotation - cart. axis [0,0,-1]       

 cryst.   s( 7) = (     0         -1          0      )
                  (     1          0          0      )
                  (     0          0          1      )

 cart.    s( 7) = (  0.0000000  1.0000000  0.0000000 )
                  ( -1.0000000  0.0000000  0.0000000 )
                  (  0.0000000  0.0000000  1.0000000 )


      isym =  8      90 deg rotation - cart. axis [0,0,1]        

 cryst.   s( 8) = (     0          1          0      )
                  (    -1          0          0      )
                  (     0          0          1      )

 cart.    s( 8) = (  0.0000000 -1.0000000  0.0000000 )
                  (  1.0000000  0.0000000  0.0000000 )
                  (  0.0000000  0.0000000  1.0000000 )


      isym =  9     180 deg rotation - cart. axis [1,0,1]        

 cryst.   s( 9) = (     0          0          1      )
                  (     0         -1          0      )
                  (     1          0          0      )

 cart.    s( 9) = (  0.0000000  0.0000000  1.0000000 )
                  (  0.0000000 -1.0000000  0.0000000 )
                  (  1.0000000  0.0000000  0.0000000 )


      isym = 10     180 deg rotation - cart. axis [-1,0,1]       

 cryst.   s(10) = (     0          0         -1      )
                  (     0         -1          0      )
                  (    -1          0          0      )

 cart.    s(10) = (  0.0000000  0.0000000 -1.0000000 )
                  (  0.0000000 -1.0000000  0.0000000 )
                  ( -1.0000000  0.0000000  0.0000000 )


      isym = 11      90 deg rotation - cart. axis [0,1,0]        

 cryst.   s(11) = (     0          0         -1      )
                  (     0          1          0      )
                  (     1          0          0      )

 cart.    s(11) = (  0.0000000  0.0000000  1.0000000 )
                  (  0.0000000  1.0000000  0.0000000 )
                  ( -1.0000000  0.0000000  0.0000000 )


      isym = 12      90 deg rotation - cart. axis [0,-1,0]       

 cryst.   s(12) = (     0          0          1      )
                  (     0          1          0      )
                  (    -1          0          0      )

 cart.    s(12) = (  0.0000000  0.0000000 -1.0000000 )
                  (  0.0000000  1.0000000  0.0000000 )
                  (  1.0000000  0.0000000  0.0000000 )


      isym = 13     180 deg rotation - cart. axis [0,1,1]        

 cryst.   s(13) = (    -1          0          0      )
                  (     0          0          1      )
                  (     0          1          0      )

 cart.    s(13) = ( -1.0000000  0.0000000  0.0000000 )
                  (  0.0000000  0.0000000  1.0000000 )
                  (  0.0000000  1.0000000  0.0000000 )


      isym = 14     180 deg rotation - cart. axis [0,1,-1]       

 cryst.   s(14) = (    -1          0          0      )
                  (     0          0         -1      )
                  (     0         -1          0      )

 cart.    s(14) = ( -1.0000000  0.0000000  0.0000000 )
                  (  0.0000000  0.0000000 -1.0000000 )
                  (  0.0000000 -1.0000000  0.0000000 )


      isym = 15      90 deg rotation - cart. axis [-1,0,0]       

 cryst.   s(15) = (     1          0          0      )
                  (     0          0         -1      )
                  (     0          1          0      )

 cart.    s(15) = (  1.0000000  0.0000000  0.0000000 )
                  (  0.0000000  0.0000000  1.0000000 )
                  (  0.0000000 -1.0000000  0.0000000 )


      isym = 16      90 deg rotation - cart. axis [1,0,0]        

 cryst.   s(16) = (     1          0          0      )
                  (     0          0          1      )
                  (     0         -1          0      )

 cart.    s(16) = (  1.0000000  0.0000000  0.0000000 )
                  (  0.0000000  0.0000000 -1.0000000 )
                  (  0.0000000  1.0000000  0.0000000 )


      isym = 17     120 deg rotation - cart. axis [-1,-1,-1]     

 cryst.   s(17) = (     0          0          1      )
                  (     1          0          0      )
                  (     0          1          0      )

 cart.    s(17) = (  0.0000000  1.0000000  0.0000000 )
                  (  0.0000000  0.0000000  1.0000000 )
                  (  1.0000000  0.0000000  0.0000000 )


      isym = 18     120 deg rotation - cart. axis [-1,1,1]       

 cryst.   s(18) = (     0          0         -1      )
                  (    -1          0          0      )
                  (     0          1          0      )

 cart.    s(18) = (  0.0000000 -1.0000000  0.0000000 )
                  (  0.0000000  0.0000000  1.0000000 )
                  ( -1.0000000  0.0000000  0.0000000 )


      isym = 19     120 deg rotation - cart. axis [1,1,-1]       

 cryst.   s(19) = (     0          0         -1      )
                  (     1          0          0      )
                  (     0         -1          0      )

 cart.    s(19) = (  0.0000000  1.0000000  0.0000000 )
                  (  0.0000000  0.0000000 -1.0000000 )
                  ( -1.0000000  0.0000000  0.0000000 )


      isym = 20     120 deg rotation - cart. axis [1,-1,1]       

 cryst.   s(20) = (     0          0          1      )
                  (    -1          0          0      )
                  (     0         -1          0      )

 cart.    s(20) = (  0.0000000 -1.0000000  0.0000000 )
                  (  0.0000000  0.0000000 -1.0000000 )
                  (  1.0000000  0.0000000  0.0000000 )


      isym = 21     120 deg rotation - cart. axis [1,1,1]        

 cryst.   s(21) = (     0          1          0      )
                  (     0          0          1      )
                  (     1          0          0      )

 cart.    s(21) = (  0.0000000  0.0000000  1.0000000 )
                  (  1.0000000  0.0000000  0.0000000 )
                  (  0.0000000  1.0000000  0.0000000 )


      isym = 22     120 deg rotation - cart. axis [-1,1,-1]      

 cryst.   s(22) = (     0         -1          0      )
                  (     0          0         -1      )
                  (     1          0          0      )

 cart.    s(22) = (  0.0000000  0.0000000  1.0000000 )
                  ( -1.0000000  0.0000000  0.0000000 )
                  (  0.0000000 -1.0000000  0.0000000 )


      isym = 23     120 deg rotation - cart. axis [1,-1,-1]      

 cryst.   s(23) = (     0         -1          0      )
                  (     0          0          1      )
                  (    -1          0          0      )

 cart.    s(23) = (  0.0000000  0.0000000 -1.0000000 )
                  ( -1.0000000  0.0000000  0.0000000 )
                  (  0.0000000  1.0000000  0.0000000 )


      isym = 24     120 deg rotation - cart. axis [-1,-1,1]      

 cryst.   s(24) = (     0          1          0      )
                  (     0          0         -1      )
                  (    -1          0          0      )

 cart.    s(24) = (  0.0000000  0.0000000 -1.0000000 )
                  (  1.0000000  0.0000000  0.0000000 )
                  (  0.0000000 -1.0000000  0.0000000 )


      isym = 25     inversion                                    

 cryst.   s(25) = (    -1          0          0      )
                  (     0         -1          0      )
                  (     0          0         -1      )

 cart.    s(25) = ( -1.0000000  0.0000000  0.0000000 )
                  (  0.0000000 -1.0000000  0.0000000 )
                  (  0.0000000  0.0000000 -1.0000000 )


      isym = 26     inv. 180 deg rotation - cart. axis [0,0,1]   

 cryst.   s(26) = (     1          0          0      )
                  (     0          1          0      )
                  (     0          0         -1      )

 cart.    s(26) = (  1.0000000  0.0000000  0.0000000 )
                  (  0.0000000  1.0000000  0.0000000 )
                  (  0.0000000  0.0000000 -1.0000000 )


      isym = 27     inv. 180 deg rotation - cart. axis [0,1,0]   

 cryst.   s(27) = (     1          0          0      )
                  (     0         -1          0      )
                  (     0          0          1      )

 cart.    s(27) = (  1.0000000  0.0000000  0.0000000 )
                  (  0.0000000 -1.0000000  0.0000000 )
                  (  0.0000000  0.0000000  1.0000000 )


      isym = 28     inv. 180 deg rotation - cart. axis [1,0,0]   

 cryst.   s(28) = (    -1          0          0      )
                  (     0          1          0      )
                  (     0          0          1      )

 cart.    s(28) = ( -1.0000000  0.0000000  0.0000000 )
                  (  0.0000000  1.0000000  0.0000000 )
                  (  0.0000000  0.0000000  1.0000000 )


      isym = 29     inv. 180 deg rotation - cart. axis [1,1,0]   

 cryst.   s(29) = (     0         -1          0      )
                  (    -1          0          0      )
                  (     0          0          1      )

 cart.    s(29) = (  0.0000000 -1.0000000  0.0000000 )
                  ( -1.0000000  0.0000000  0.0000000 )
                  (  0.0000000  0.0000000  1.0000000 )


      isym = 30     inv. 180 deg rotation - cart. axis [1,-1,0]  

 cryst.   s(30) = (     0          1          0      )
                  (     1          0          0      )
                  (     0          0          1      )

 cart.    s(30) = (  0.0000000  1.0000000  0.0000000 )
                  (  1.0000000  0.0000000  0.0000000 )
                  (  0.0000000  0.0000000  1.0000000 )


      isym = 31     inv.  90 deg rotation - cart. axis [0,0,-1]  

 cryst.   s(31) = (     0          1          0      )
                  (    -1          0          0      )
                  (     0          0         -1      )

 cart.    s(31) = (  0.0000000 -1.0000000  0.0000000 )
                  (  1.0000000  0.0000000  0.0000000 )
                  (  0.0000000  0.0000000 -1.0000000 )


      isym = 32     inv.  90 deg rotation - cart. axis [0,0,1]   

 cryst.   s(32) = (     0         -1          0      )
                  (     1          0          0      )
                  (     0          0         -1      )

 cart.    s(32) = (  0.0000000  1.0000000  0.0000000 )
                  ( -1.0000000  0.0000000  0.0000000 )
                  (  0.0000000  0.0000000 -1.0000000 )


      isym = 33     inv. 180 deg rotation - cart. axis [1,0,1]   

 cryst.   s(33) = (     0          0         -1      )
                  (     0          1          0      )
                  (    -1          0          0      )

 cart.    s(33) = (  0.0000000  0.0000000 -1.0000000 )
                  (  0.0000000  1.0000000  0.0000000 )
                  ( -1.0000000  0.0000000  0.0000000 )


      isym = 34     inv. 180 deg rotation - cart. axis [-1,0,1]  

 cryst.   s(34) = (     0          0          1      )
                  (     0          1          0      )
                  (     1          0          0      )

 cart.    s(34) = (  0.0000000  0.0000000  1.0000000 )
                  (  0.0000000  1.0000000  0.0000000 )
                  (  1.0000000  0.0000000  0.0000000 )


      isym = 35     inv.  90 deg rotation - cart. axis [0,1,0]   

 cryst.   s(35) = (     0          0          1      )
                  (     0         -1          0      )
                  (    -1          0          0      )

 cart.    s(35) = (  0.0000000  0.0000000 -1.0000000 )
                  (  0.0000000 -1.0000000  0.0000000 )
                  (  1.0000000  0.0000000  0.0000000 )


      isym = 36     inv.  90 deg rotation - cart. axis [0,-1,0]  

 cryst.   s(36) = (     0          0         -1      )
                  (     0         -1          0      )
                  (     1          0          0      )

 cart.    s(36) = (  0.0000000  0.0000000  1.0000000 )
                  (  0.0000000 -1.0000000  0.0000000 )
                  ( -1.0000000  0.0000000  0.0000000 )


      isym = 37     inv. 180 deg rotation - cart. axis [0,1,1]   

 cryst.   s(37) = (     1          0          0      )
                  (     0          0         -1      )
                  (     0         -1          0      )

 cart.    s(37) = (  1.0000000  0.0000000  0.0000000 )
                  (  0.0000000  0.0000000 -1.0000000 )
                  (  0.0000000 -1.0000000  0.0000000 )


      isym = 38     inv. 180 deg rotation - cart. axis [0,1,-1]  

 cryst.   s(38) = (     1          0          0      )
                  (     0          0          1      )
                  (     0          1          0      )

 cart.    s(38) = (  1.0000000  0.0000000  0.0000000 )
                  (  0.0000000  0.0000000  1.0000000 )
                  (  0.0000000  1.0000000  0.0000000 )


      isym = 39     inv.  90 deg rotation - cart. axis [-1,0,0]  

 cryst.   s(39) = (    -1          0          0      )
                  (     0          0          1      )
                  (     0         -1          0      )

 cart.    s(39) = ( -1.0000000  0.0000000  0.0000000 )
                  (  0.0000000  0.0000000 -1.0000000 )
                  (  0.0000000  1.0000000  0.0000000 )


      isym = 40     inv.  90 deg rotation - cart. axis [1,0,0]   

 cryst.   s(40) = (    -1          0          0      )
                  (     0          0         -1      )
                  (     0          1          0      )

 cart.    s(40) = ( -1.0000000  0.0000000  0.0000000 )
                  (  0.0000000  0.0000000  1.0000000 )
                  (  0.0000000 -1.0000000  0.0000000 )


      isym = 41     inv. 120 deg rotation - cart. axis [-1,-1,-1]

 cryst.   s(41) = (     0          0         -1      )
                  (    -1          0          0      )
                  (     0         -1          0      )

 cart.    s(41) = (  0.0000000 -1.0000000  0.0000000 )
                  (  0.0000000  0.0000000 -1.0000000 )
                  ( -1.0000000  0.0000000  0.0000000 )


      isym = 42     inv. 120 deg rotation - cart. axis [-1,1,1]  

 cryst.   s(42) = (     0          0          1      )
                  (     1          0          0      )
                  (     0         -1          0      )

 cart.    s(42) = (  0.0000000  1.0000000  0.0000000 )
                  (  0.0000000  0.0000000 -1.0000000 )
                  (  1.0000000  0.0000000  0.0000000 )


      isym = 43     inv. 120 deg rotation - cart. axis [1,1,-1]  

 cryst.   s(43) = (     0          0          1      )
                  (    -1          0          0      )
                  (     0          1          0      )

 cart.    s(43) = (  0.0000000 -1.0000000  0.0000000 )
                  (  0.0000000  0.0000000  1.0000000 )
                  (  1.0000000  0.0000000  0.0000000 )


      isym = 44     inv. 120 deg rotation - cart. axis [1,-1,1]  

 cryst.   s(44) = (     0          0         -1      )
                  (     1          0          0      )
                  (     0          1          0      )

 cart.    s(44) = (  0.0000000  1.0000000  0.0000000 )
                  (  0.0000000  0.0000000  1.0000000 )
                  ( -1.0000000  0.0000000  0.0000000 )


      isym = 45     inv. 120 deg rotation - cart. axis [1,1,1]   

 cryst.   s(45) = (     0         -1          0      )
                  (     0          0         -1      )
                  (    -1          0          0      )

 cart.    s(45) = (  0.0000000  0.0000000 -1.0000000 )
                  ( -1.0000000  0.0000000  0.0000000 )
                  (  0.0000000 -1.0000000  0.0000000 )


      isym = 46     inv. 120 deg rotation - cart. axis [-1,1,-1] 

 cryst.   s(46) = (     0          1          0      )
                  (     0          0          1      )
                  (    -1          0          0      )

 cart.    s(46) = (  0.0000000  0.0000000 -1.0000000 )
                  (  1.0000000  0.0000000  0.0000000 )
                  (  0.0000000  1.0000000  0.0000000 )


      isym = 47     inv. 120 deg rotation - cart. axis [1,-1,-1] 

 cryst.   s(47) = (     0          1          0      )
                  (     0          0         -1      )
                  (     1          0          0      )

 cart.    s(47) = (  0.0000000  0.0000000  1.0000000 )
                  (  1.0000000  0.0000000  0.0000000 )
                  (  0.0000000 -1.0000000  0.0000000 )


      isym = 48     inv. 120 deg rotation - cart. axis [-1,-1,1] 

 cryst.   s(48) = (     0         -1          0      )
                  (     0          0          1      )
                  (     1          0          0      )

 cart.    s(48) = (  0.0000000  0.0000000  1.0000000 )
                  ( -1.0000000  0.0000000  0.0000000 )
                  (  0.0000000  1.0000000  0.0000000 )


   Cartesian axes

     site n.     atom                  positions (alat units)
         1        Fe     tau(   1) = (   0.0000000   0.0000000   0.0000000  )
         2        Fe     tau(   2) = (   0.1250000   0.1250000   0.1250000  )
         3        Fe     tau(   3) = (   0.0000000   0.0000000   0.2500000  )
         4        Fe     tau(   4) = (   0.1250000   0.1250000   0.3750000  )
         5        Fe     tau(   5) = (   0.0000000   0.0000000   0.5000000  )
         6        Fe     tau(   6) = (   0.1250000   0.1250000   0.6250000  )
         7        Fe     tau(   7) = (   0.0000000   0.0000000   0.7500000  )
         8        Fe     tau(   8) = (   0.1250000   0.1250000   0.8750000  )
         9        Fe     tau(   9) = (   0.0000000   0.2500000   0.0000000  )
        10        Fe     tau(  10) = (   0.1250000   0.3750000   0.1250000  )
        11        Fe     tau(  11) = (   0.0000000   0.2500000   0.2500000  )
        12        Fe     tau(  12) = (   0.1250000   0.3750000   0.3750000  )
        13        Fe     tau(  13) = (   0.0000000   0.2500000   0.5000000  )
        14        Fe     tau(  14) = (   0.1250000   0.3750000   0.6250000  )
        15        Fe     tau(  15) = (   0.0000000   0.2500000   0.7500000  )
        16        Fe     tau(  16) = (   0.1250000   0.3750000   0.8750000  )
        17        Fe     tau(  17) = (   0.0000000   0.5000000   0.0000000  )
        18        Fe     tau(  18) = (   0.1250000   0.6250000   0.1250000  )
        19        Fe     tau(  19) = (   0.0000000   0.5000000   0.2500000  )
        20        Fe     tau(  20) = (   0.1250000   0.6250000   0.3750000  )
        21        Fe     tau(  21) = (   0.0000000   0.5000000   0.5000000  )
        22        Fe     tau(  22) = (   0.1250000   0.6250000   0.6250000  )
        23        Fe     tau(  23) = (   0.0000000   0.5000000   0.7500000  )
        24        Fe     tau(  24) = (   0.1250000   0.6250000   0.8750000  )
        25        Fe     tau(  25) = (   0.0000000   0.7500000   0.0000000  )
        26        Fe     tau(  26) = (   0.1250000   0.8750000   0.1250000  )
        27        Fe     tau(  27) = (   0.0000000   0.7500000   0.2500000  )
        28        Fe     tau(  28) = (   0.1250000   0.8750000   0.3750000  )
        29        Fe     tau(  29) = (   0.0000000   0.7500000   0.5000000  )
        30        Fe     tau(  30) = (   0.1250000   0.8750000   0.6250000  )
        31        Fe     tau(  31) = (   0.0000000   0.7500000   0.7500000  )
        32        Fe     tau(  32) = (   0.1250000   0.8750000   0.8750000  )
        33        Fe     tau(  33) = (   0.2500000   0.0000000   0.0000000  )
        34        Fe     tau(  34) = (   0.3750000   0.1250000   0.1250000  )
        35        Fe     tau(  35) = (   0.2500000   0.0000000   0.2500000  )
        36        Fe     tau(  36) = (   0.3750000   0.1250000   0.3750000  )
        37        Fe     tau(  37) = (   0.2500000   0.0000000   0.5000000  )
        38        Fe     tau(  38) = (   0.3750000   0.1250000   0.6250000  )
        39        Fe     tau(  39) = (   0.2500000   0.0000000   0.7500000  )
        40        Fe     tau(  40) = (   0.3750000   0.1250000   0.8750000  )
        41        Fe     tau(  41) = (   0.2500000   0.2500000   0.0000000  )
        42        Fe     tau(  42) = (   0.3750000   0.3750000   0.1250000  )
        43        Fe     tau(  43) = (   0.2500000   0.2500000   0.2500000  )
        44        Fe     tau(  44) = (   0.3750000   0.3750000   0.3750000  )
        45        Fe     tau(  45) = (   0.2500000   0.2500000   0.5000000  )
        46        Fe     tau(  46) = (   0.3750000   0.3750000   0.6250000  )
        47        Fe     tau(  47) = (   0.2500000   0.2500000   0.7500000  )
        48        Fe     tau(  48) = (   0.3750000   0.3750000   0.8750000  )
        49        Fe     tau(  49) = (   0.2500000   0.5000000   0.0000000  )
        50        Fe     tau(  50) = (   0.3750000   0.6250000   0.1250000  )
        51        Fe     tau(  51) = (   0.2500000   0.5000000   0.2500000  )
        52        Fe     tau(  52) = (   0.3750000   0.6250000   0.3750000  )
        53        Fe     tau(  53) = (   0.2500000   0.5000000   0.5000000  )
        54        Fe     tau(  54) = (   0.3750000   0.6250000   0.6250000  )
        55        Fe     tau(  55) = (   0.2500000   0.5000000   0.7500000  )
        56        Fe     tau(  56) = (   0.3750000   0.6250000   0.8750000  )
        57        Fe     tau(  57) = (   0.2500000   0.7500000   0.0000000  )
        58        Fe     tau(  58) = (   0.3750000   0.8750000   0.1250000  )
        59        Fe     tau(  59) = (   0.2500000   0.7500000   0.2500000  )
        60        Fe     tau(  60) = (   0.3750000   0.8750000   0.3750000  )
        61        Fe     tau(  61) = (   0.2500000   0.7500000   0.5000000  )
        62        Fe     tau(  62) = (   0.3750000   0.8750000   0.6250000  )
        63        Fe     tau(  63) = (   0.2500000   0.7500000   0.7500000  )
        64        Fe     tau(  64) = (   0.3750000   0.8750000   0.8750000  )
        65        Fe     tau(  65) = (   0.5000000   0.0000000   0.0000000  )
        66        Fe     tau(  66) = (   0.6250000   0.1250000   0.1250000  )
        67        Fe     tau(  67) = (   0.5000000   0.0000000   0.2500000  )
        68        Fe     tau(  68) = (   0.6250000   0.1250000   0.3750000  )
        69        Fe     tau(  69) = (   0.5000000   0.0000000   0.5000000  )
        70        Fe     tau(  70) = (   0.6250000   0.1250000   0.6250000  )
        71        Fe     tau(  71) = (   0.5000000   0.0000000   0.7500000  )
        72        Fe     tau(  72) = (   0.6250000   0.1250000   0.8750000  )
        73        Fe     tau(  73) = (   0.5000000   0.2500000   0.0000000  )
        74        Fe     tau(  74) = (   0.6250000   0.3750000   0.1250000  )
        75        Fe     tau(  75) = (   0.5000000   0.2500000   0.2500000  )
        76        Fe     tau(  76) = (   0.6250000   0.3750000   0.3750000  )
        77        Fe     tau(  77) = (   0.5000000   0.2500000   0.5000000  )
        78        Fe     tau(  78) = (   0.6250000   0.3750000   0.6250000  )
        79        Fe     tau(  79) = (   0.5000000   0.2500000   0.7500000  )
        80        Fe     tau(  80) = (   0.6250000   0.3750000   0.8750000  )
        81        Fe     tau(  81) = (   0.5000000   0.5000000   0.0000000  )
        82        Fe     tau(  82) = (   0.6250000   0.6250000   0.1250000  )
        83        Fe     tau(  83) = (   0.5000000   0.5000000   0.2500000  )
        84        Fe     tau(  84) = (   0.6250000   0.6250000   0.3750000  )
        85        Fe     tau(  85) = (   0.5000000   0.5000000   0.5000000  )
        86        Fe     tau(  86) = (   0.6250000   0.6250000   0.6250000  )
        87        Fe     tau(  87) = (   0.5000000   0.5000000   0.7500000  )
        88        Fe     tau(  88) = (   0.6250000   0.6250000   0.8750000  )
        89        Fe     tau(  89) = (   0.5000000   0.7500000   0.0000000  )
        90        Fe     tau(  90) = (   0.6250000   0.8750000   0.1250000  )
        91        Fe     tau(  91) = (   0.5000000   0.7500000   0.2500000  )
        92        Fe     tau(  92) = (   0.6250000   0.8750000   0.3750000  )
        93        Fe     tau(  93) = (   0.5000000   0.7500000   0.5000000  )
        94        Fe     tau(  94) = (   0.6250000   0.8750000   0.6250000  )
        95        Fe     tau(  95) = (   0.5000000   0.7500000   0.7500000  )
        96        Fe     tau(  96) = (   0.6250000   0.8750000   0.8750000  )
        97        Fe     tau(  97) = (   0.7500000   0.0000000   0.0000000  )
        98        Fe     tau(  98) = (   0.8750000   0.1250000   0.1250000  )
        99        Fe     tau(  99) = (   0.7500000   0.0000000   0.2500000  )
       100        Fe     tau( 100) = (   0.8750000   0.1250000   0.3750000  )
       101        Fe     tau( 101) = (   0.7500000   0.0000000   0.5000000  )
       102        Fe     tau( 102) = (   0.8750000   0.1250000   0.6250000  )
       103        Fe     tau( 103) = (   0.7500000   0.0000000   0.7500000  )
       104        Fe     tau( 104) = (   0.8750000   0.1250000   0.8750000  )
       105        Fe     tau( 105) = (   0.7500000   0.2500000   0.0000000  )
       106        Fe     tau( 106) = (   0.8750000   0.3750000   0.1250000  )
       107        Fe     tau( 107) = (   0.7500000   0.2500000   0.2500000  )
       108        Fe     tau( 108) = (   0.8750000   0.3750000   0.3750000  )
       109        Fe     tau( 109) = (   0.7500000   0.2500000   0.5000000  )
       110        Fe     tau( 110) = (   0.8750000   0.3750000   0.6250000  )
       111        Fe     tau( 111) = (   0.7500000   0.2500000   0.7500000  )
       112        Fe     tau( 112) = (   0.8750000   0.3750000   0.8750000  )
       113        Fe     tau( 113) = (   0.7500000   0.5000000   0.0000000  )
       114        Fe     tau( 114) = (   0.8750000   0.6250000   0.1250000  )
       115        Fe     tau( 115) = (   0.7500000   0.5000000   0.2500000  )
       116        Fe     tau( 116) = (   0.8750000   0.6250000   0.3750000  )
       117        Fe     tau( 117) = (   0.7500000   0.5000000   0.5000000  )
       118        Fe     tau( 118) = (   0.8750000   0.6250000   0.6250000  )
       119        Fe     tau( 119) = (   0.7500000   0.5000000   0.7500000  )
       120        Fe     tau( 120) = (   0.8750000   0.6250000   0.8750000  )
       121        Fe     tau( 121) = (   0.7500000   0.7500000   0.0000000  )
       122        Fe     tau( 122) = (   0.8750000   0.8750000   0.1250000  )
       123        Fe     tau( 123) = (   0.7500000   0.7500000   0.2500000  )
       124        Fe     tau( 124) = (   0.8750000   0.8750000   0.3750000  )
       125        Fe     tau( 125) = (   0.7500000   0.7500000   0.5000000  )
       126        Fe     tau( 126) = (   0.8750000   0.8750000   0.6250000  )
       127        Fe     tau( 127) = (   0.7500000   0.7500000   0.7500000  )
       128        Fe     tau( 128) = (   0.8750000   0.8750000   0.8750000  )

   Crystallographic axes

     site n.     atom                  positions (cryst. coord.)
         1        Fe     tau(   1) = (  0.0000000  0.0000000  0.0000000  )
         2        Fe     tau(   2) = (  0.1250000  0.1250000  0.1250000  )
         3        Fe     tau(   3) = (  0.0000000  0.0000000  0.2500000  )
         4        Fe     tau(   4) = (  0.1250000  0.1250000  0.3750000  )
         5        Fe     tau(   5) = (  0.0000000  0.0000000  0.5000000  )
         6        Fe     tau(   6) = (  0.1250000  0.1250000  0.6250000  )
         7        Fe     tau(   7) = (  0.0000000  0.0000000  0.7500000  )
         8        Fe     tau(   8) = (  0.1250000  0.1250000  0.8750000  )
         9        Fe     tau(   9) = (  0.0000000  0.2500000  0.0000000  )
        10        Fe     tau(  10) = (  0.1250000  0.3750000  0.1250000  )
        11        Fe     tau(  11) = (  0.0000000  0.2500000  0.2500000  )
        12        Fe     tau(  12) = (  0.1250000  0.3750000  0.3750000  )
        13        Fe     tau(  13) = (  0.0000000  0.2500000  0.5000000  )
        14        Fe     tau(  14) = (  0.1250000  0.3750000  0.6250000  )
        15        Fe     tau(  15) = (  0.0000000  0.2500000  0.7500000  )
        16        Fe     tau(  16) = (  0.1250000  0.3750000  0.8750000  )
        17        Fe     tau(  17) = (  0.0000000  0.5000000  0.0000000  )
        18        Fe     tau(  18) = (  0.1250000  0.6250000  0.1250000  )
        19        Fe     tau(  19) = (  0.0000000  0.5000000  0.2500000  )
        20        Fe     tau(  20) = (  0.1250000  0.6250000  0.3750000  )
        21        Fe     tau(  21) = (  0.0000000  0.5000000  0.5000000  )
        22        Fe     tau(  22) = (  0.1250000  0.6250000  0.6250000  )
        23        Fe     tau(  23) = (  0.0000000  0.5000000  0.7500000  )
        24        Fe     tau(  24) = (  0.1250000  0.6250000  0.8750000  )
        25        Fe     tau(  25) = (  0.0000000  0.7500000  0.0000000  )
        26        Fe     tau(  26) = (  0.1250000  0.8750000  0.1250000  )
        27        Fe     tau(  27) = (  0.0000000  0.7500000  0.2500000  )
        28        Fe     tau(  28) = (  0.1250000  0.8750000  0.3750000  )
        29        Fe     tau(  29) = (  0.0000000  0.7500000  0.5000000  )
        30        Fe     tau(  30) = (  0.1250000  0.8750000  0.6250000  )
        31        Fe     tau(  31) = (  0.0000000  0.7500000  0.7500000  )
        32        Fe     tau(  32) = (  0.1250000  0.8750000  0.8750000  )
        33        Fe     tau(  33) = (  0.2500000  0.0000000  0.0000000  )
        34        Fe     tau(  34) = (  0.3750000  0.1250000  0.1250000  )
        35        Fe     tau(  35) = (  0.2500000  0.0000000  0.2500000  )
        36        Fe     tau(  36) = (  0.3750000  0.1250000  0.3750000  )
        37        Fe     tau(  37) = (  0.2500000  0.0000000  0.5000000  )
        38        Fe     tau(  38) = (  0.3750000  0.1250000  0.6250000  )
        39        Fe     tau(  39) = (  0.2500000  0.0000000  0.7500000  )
        40        Fe     tau(  40) = (  0.3750000  0.1250000  0.8750000  )
        41        Fe     tau(  41) = (  0.2500000  0.2500000  0.0000000  )
        42        Fe     tau(  42) = (  0.3750000  0.3750000  0.1250000  )
        43        Fe     tau(  43) = (  0.2500000  0.2500000  0.2500000  )
        44        Fe     tau(  44) = (  0.3750000  0.3750000  0.3750000  )
        45        Fe     tau(  45) = (  0.2500000  0.2500000  0.5000000  )
        46        Fe     tau(  46) = (  0.3750000  0.3750000  0.6250000  )
        47        Fe     tau(  47) = (  0.2500000  0.2500000  0.7500000  )
        48        Fe     tau(  48) = (  0.3750000  0.3750000  0.8750000  )
        49        Fe     tau(  49) = (  0.2500000  0.5000000  0.0000000  )
        50        Fe     tau(  50) = (  0.3750000  0.6250000  0.1250000  )
        51        Fe     tau(  51) = (  0.2500000  0.5000000  0.2500000  )
        52        Fe     tau(  52) = (  0.3750000  0.6250000  0.3750000  )
        53        Fe     tau(  53) = (  0.2500000  0.5000000  0.5000000  )
        54        Fe     tau(  54) = (  0.3750000  0.6250000  0.6250000  )
        55        Fe     tau(  55) = (  0.2500000  0.5000000  0.7500000  )
        56        Fe     tau(  56) = (  0.3750000  0.6250000  0.8750000  )
        57        Fe     tau(  57) = (  0.2500000  0.7500000  0.0000000  )
        58        Fe     tau(  58) = (  0.3750000  0.8750000  0.1250000  )
        59        Fe     tau(  59) = (  0.2500000  0.7500000  0.2500000  )
        60        Fe     tau(  60) = (  0.3750000  0.8750000  0.3750000  )
        61        Fe     tau(  61) = (  0.2500000  0.7500000  0.5000000  )
        62        Fe     tau(  62) = (  0.3750000  0.8750000  0.6250000  )
        63        Fe     tau(  63) = (  0.2500000  0.7500000  0.7500000  )
        64        Fe     tau(  64) = (  0.3750000  0.8750000  0.8750000  )
        65        Fe     tau(  65) = (  0.5000000  0.0000000  0.0000000  )
        66        Fe     tau(  66) = (  0.6250000  0.1250000  0.1250000  )
        67        Fe     tau(  67) = (  0.5000000  0.0000000  0.2500000  )
        68        Fe     tau(  68) = (  0.6250000  0.1250000  0.3750000  )
        69        Fe     tau(  69) = (  0.5000000  0.0000000  0.5000000  )
        70        Fe     tau(  70) = (  0.6250000  0.1250000  0.6250000  )
        71        Fe     tau(  71) = (  0.5000000  0.0000000  0.7500000  )
        72        Fe     tau(  72) = (  0.6250000  0.1250000  0.8750000  )
        73        Fe     tau(  73) = (  0.5000000  0.2500000  0.0000000  )
        74        Fe     tau(  74) = (  0.6250000  0.3750000  0.1250000  )
        75        Fe     tau(  75) = (  0.5000000  0.2500000  0.2500000  )
        76        Fe     tau(  76) = (  0.6250000  0.3750000  0.3750000  )
        77        Fe     tau(  77) = (  0.5000000  0.2500000  0.5000000  )
        78        Fe     tau(  78) = (  0.6250000  0.3750000  0.6250000  )
        79        Fe     tau(  79) = (  0.5000000  0.2500000  0.7500000  )
        80        Fe     tau(  80) = (  0.6250000  0.3750000  0.8750000  )
        81        Fe     tau(  81) = (  0.5000000  0.5000000  0.0000000  )
        82        Fe     tau(  82) = (  0.6250000  0.6250000  0.1250000  )
        83        Fe     tau(  83) = (  0.5000000  0.5000000  0.2500000  )
        84        Fe     tau(  84) = (  0.6250000  0.6250000  0.3750000  )
        85        Fe     tau(  85) = (  0.5000000  0.5000000  0.5000000  )
        86        Fe     tau(  86) = (  0.6250000  0.6250000  0.6250000  )
        87        Fe     tau(  87) = (  0.5000000  0.5000000  0.7500000  )
        88        Fe     tau(  88) = (  0.6250000  0.6250000  0.8750000  )
        89        Fe     tau(  89) = (  0.5000000  0.7500000  0.0000000  )
        90        Fe     tau(  90) = (  0.6250000  0.8750000  0.1250000  )
        91        Fe     tau(  91) = (  0.5000000  0.7500000  0.2500000  )
        92        Fe     tau(  92) = (  0.6250000  0.8750000  0.3750000  )
        93        Fe     tau(  93) = (  0.5000000  0.7500000  0.5000000  )
        94        Fe     tau(  94) = (  0.6250000  0.8750000  0.6250000  )
        95        Fe     tau(  95) = (  0.5000000  0.7500000  0.7500000  )
        96        Fe     tau(  96) = (  0.6250000  0.8750000  0.8750000  )
        97        Fe     tau(  97) = (  0.7500000  0.0000000  0.0000000  )
        98        Fe     tau(  98) = (  0.8750000  0.1250000  0.1250000  )
        99        Fe     tau(  99) = (  0.7500000  0.0000000  0.2500000  )
       100        Fe     tau( 100) = (  0.8750000  0.1250000  0.3750000  )
       101        Fe     tau( 101) = (  0.7500000  0.0000000  0.5000000  )
       102        Fe     tau( 102) = (  0.8750000  0.1250000  0.6250000  )
       103        Fe     tau( 103) = (  0.7500000  0.0000000  0.7500000  )
       104        Fe     tau( 104) = (  0.8750000  0.1250000  0.8750000  )
       105        Fe     tau( 105) = (  0.7500000  0.2500000  0.0000000  )
       106        Fe     tau( 106) = (  0.8750000  0.3750000  0.1250000  )
       107        Fe     tau( 107) = (  0.7500000  0.2500000  0.2500000  )
       108        Fe     tau( 108) = (  0.8750000  0.3750000  0.3750000  )
       109        Fe     tau( 109) = (  0.7500000  0.2500000  0.5000000  )
       110        Fe     tau( 110) = (  0.8750000  0.3750000  0.6250000  )
       111        Fe     tau( 111) = (  0.7500000  0.2500000  0.7500000  )
       112        Fe     tau( 112) = (  0.8750000  0.3750000  0.8750000  )
       113        Fe     tau( 113) = (  0.7500000  0.5000000  0.0000000  )
       114        Fe     tau( 114) = (  0.8750000  0.6250000  0.1250000  )
       115        Fe     tau( 115) = (  0.7500000  0.5000000  0.2500000  )
       116        Fe     tau( 116) = (  0.8750000  0.6250000  0.3750000  )
       117        Fe     tau( 117) = (  0.7500000  0.5000000  0.5000000  )
       118        Fe     tau( 118) = (  0.8750000  0.6250000  0.6250000  )
       119        Fe     tau( 119) = (  0.7500000  0.5000000  0.7500000  )
       120        Fe     tau( 120) = (  0.8750000  0.6250000  0.8750000  )
       121        Fe     tau( 121) = (  0.7500000  0.7500000  0.0000000  )
       122        Fe     tau( 122) = (  0.8750000  0.8750000  0.1250000  )
       123        Fe     tau( 123) = (  0.7500000  0.7500000  0.2500000  )
       124        Fe     tau( 124) = (  0.8750000  0.8750000  0.3750000  )
       125        Fe     tau( 125) = (  0.7500000  0.7500000  0.5000000  )
       126        Fe     tau( 126) = (  0.8750000  0.8750000  0.6250000  )
       127        Fe     tau( 127) = (  0.7500000  0.7500000  0.7500000  )
       128        Fe     tau( 128) = (  0.8750000  0.8750000  0.8750000  )

     number of k points=    10  Marzari-Vanderbilt smearing, width (Ry)=  0.0100
                       cart. coord. in units 2pi/alat
        k(    1) = (   0.0000000   0.0000000   0.0000000), wk =   0.0156250
        k(    2) = (   0.0000000   0.0000000   0.2500000), wk =   0.0937500
        k(    3) = (   0.0000000   0.0000000  -0.5000000), wk =   0.0468750
        k(    4) = (   0.0000000   0.2500000   0.2500000), wk =   0.1875000
        k(    5) = (   0.0000000   0.2500000  -0.5000000), wk =   0.1875000
        k(    6) = (   0.0000000  -0.5000000  -0.5000000), wk =   0.0468750
        k(    7) = (   0.2500000   0.2500000   0.2500000), wk =   0.1250000
        k(    8) = (   0.2500000   0.2500000  -0.5000000), wk =   0.1875000
        k(    9) = (   0.2500000  -0.5000000  -0.5000000), wk =   0.0937500
        k(   10) = (  -0.5000000  -0.5000000  -0.5000000), wk =   0.0156250

                       cryst. coord.
        k(    1) = (   0.0000000   0.0000000   0.0000000), wk =   0.0156250
        k(    2) = (   0.0000000   0.0000000   0.2500000), wk =   0.0937500
        k(    3) = (   0.0000000   0.0000000  -0.5000000), wk =   0.0468750
        k(    4) = (   0.0000000   0.2500000   0.2500000), wk =   0.1875000
        k(    5) = (   0.0000000   0.2500000  -0.5000000), wk =   0.1875000
        k(    6) = (   0.0000000  -0.5000000  -0.5000000), wk =   0.0468750
        k(    7) = (   0.2500000   0.2500000   0.2500000), wk =   0.1250000
        k(    8) = (   0.2500000   0.2500000  -0.5000000), wk =   0.1875000
        k(    9) = (   0.2500000  -0.5000000  -0.5000000), wk =   0.0937500
        k(   10) = (  -0.5000000  -0.5000000  -0.5000000), wk =   0.0156250

     Dense  grid:  6107759 G-vectors     FFT dimensions: ( 240, 240, 240)

     Smooth grid:  1174959 G-vectors     FFT dimensions: ( 135, 135, 135)

     Dynamical RAM for                 wfc:      86.10 MB

     Dynamical RAM for     wfc (w. buffer):     516.57 MB

     Dynamical RAM for           str. fact:       2.91 MB

     Dynamical RAM for           local pot:       0.00 MB

     Dynamical RAM for          nlocal pot:     161.40 MB

     Dynamical RAM for                qrad:       2.64 MB

     Dynamical RAM for          rho,v,vnew:      38.57 MB

     Dynamical RAM for               rhoin:      12.86 MB

     Dynamical RAM for            rho*nmix:      93.20 MB

     Dynamical RAM for           G-vectors:      11.20 MB

     Dynamical RAM for          h,s,v(r/c):      11.04 MB

     Dynamical RAM for          <psi|beta>:      43.21 MB

     Dynamical RAM for                 psi:     172.19 MB

     Dynamical RAM for                hpsi:     172.19 MB

     Dynamical RAM for                spsi:     172.19 MB

     Dynamical RAM for      wfcinit/wfcrot:     216.85 MB

     Dynamical RAM for           addusdens:     233.72 MB

     Dynamical RAM for          addusforce:     417.48 MB

     Dynamical RAM for         addusstress:     149.63 MB

     Estimated static dynamical RAM per process >     773.07 MB

     Estimated max dynamical RAM per process >       1.40 GB

     Estimated total dynamical RAM >     170.90 GB
     Generating pointlists ...
     new r_m :   0.0893 (alat units)  1.9362 (a.u.) for type    1

     Initial potential from superposition of free atoms

     starting charge    2047.9440, renormalised to    2048.0000
     Starting wfcs are 1280 randomized atomic wfcs
     Checking if some PAW data can be deallocated... 

     total cpu time spent up to now is      137.8 secs

     per-process dynamical memory:  1013.8 Mb

     Self-consistent Calculation

     iteration #  1     ecut=    90.00 Ry     beta= 0.20
     Davidson diagonalization with overlap

---- Real-time Memory Report at c_bands before calling an iterative solver
          1729 MiB given to the printing process from OS
           990 MiB allocation reported by mallinfo(arena+hblkhd)
        344900 MiB available memory on the node where the printing process lives
------------------
     ethr =  1.00E-02,  avg # of iterations =  3.1

     total cpu time spent up to now is      631.1 secs

     total energy              =  -42125.87269281 Ry
     estimated scf accuracy    <      35.48439739 Ry

     total magnetization       =   401.31 Bohr mag/cell
     absolute magnetization    =   406.26 Bohr mag/cell

     iteration #  2     ecut=    90.00 Ry     beta= 0.20
     Davidson diagonalization with overlap

---- Real-time Memory Report at c_bands before calling an iterative solver
          2163 MiB given to the printing process from OS
          1026 MiB allocation reported by mallinfo(arena+hblkhd)
        341215 MiB available memory on the node where the printing process lives
------------------
     ethr =  1.73E-03,  avg # of iterations =  3.4

     negative rho (up, down):  0.000E+00 1.006E-02

     total cpu time spent up to now is     1047.6 secs

     total energy              =  -42139.95206814 Ry
     estimated scf accuracy    <      24.71678993 Ry

     total magnetization       =   390.27 Bohr mag/cell
     absolute magnetization    =   399.17 Bohr mag/cell

     iteration #  3     ecut=    90.00 Ry     beta= 0.20
     Davidson diagonalization with overlap

---- Real-time Memory Report at c_bands before calling an iterative solver
          2196 MiB given to the printing process from OS
          1030 MiB allocation reported by mallinfo(arena+hblkhd)
        341069 MiB available memory on the node where the printing process lives
------------------
     ethr =  1.21E-03,  avg # of iterations =  5.0

     negative rho (up, down):  0.000E+00 3.905E-02

     total cpu time spent up to now is     1495.3 secs

     total energy              =  -42135.07192182 Ry
     estimated scf accuracy    <     405.33824954 Ry

     total magnetization       =   354.48 Bohr mag/cell
     absolute magnetization    =   366.77 Bohr mag/cell

     iteration #  4     ecut=    90.00 Ry     beta= 0.20
     Davidson diagonalization with overlap

---- Real-time Memory Report at c_bands before calling an iterative solver
          2200 MiB given to the printing process from OS
          1033 MiB allocation reported by mallinfo(arena+hblkhd)
        340943 MiB available memory on the node where the printing process lives
------------------
     ethr =  1.21E-03,  avg # of iterations =  3.7

     negative rho (up, down):  0.000E+00 5.436E-02

     total cpu time spent up to now is     1912.4 secs

     total energy              =  -42144.47079030 Ry
     estimated scf accuracy    <      44.42384155 Ry

     total magnetization       =   334.67 Bohr mag/cell
     absolute magnetization    =   353.04 Bohr mag/cell

     iteration #  5     ecut=    90.00 Ry     beta= 0.20
     Davidson diagonalization with overlap

---- Real-time Memory Report at c_bands before calling an iterative solver
          2203 MiB given to the printing process from OS
          1036 MiB allocation reported by mallinfo(arena+hblkhd)
        340822 MiB available memory on the node where the printing process lives
------------------
     ethr =  1.21E-03,  avg # of iterations =  1.2

     negative rho (up, down):  0.000E+00 5.411E-02

     total cpu time spent up to now is     2284.1 secs

     total energy              =  -42146.00349295 Ry
     estimated scf accuracy    <       8.39474473 Ry

     total magnetization       =   324.24 Bohr mag/cell
     absolute magnetization    =   344.20 Bohr mag/cell

     iteration #  6     ecut=    90.00 Ry     beta= 0.20
     Davidson diagonalization with overlap

---- Real-time Memory Report at c_bands before calling an iterative solver
          2206 MiB given to the printing process from OS
          1039 MiB allocation reported by mallinfo(arena+hblkhd)
        340682 MiB available memory on the node where the printing process lives
------------------
     ethr =  4.10E-04,  avg # of iterations =  2.3

     negative rho (up, down):  0.000E+00 5.192E-02

     total cpu time spent up to now is     2682.0 secs

     total energy              =  -42146.28193822 Ry
     estimated scf accuracy    <       1.84500083 Ry

     total magnetization       =   321.90 Bohr mag/cell
     absolute magnetization    =   341.63 Bohr mag/cell

     iteration #  7     ecut=    90.00 Ry     beta= 0.20
     Davidson diagonalization with overlap

---- Real-time Memory Report at c_bands before calling an iterative solver
          2209 MiB given to the printing process from OS
          1042 MiB allocation reported by mallinfo(arena+hblkhd)
        340581 MiB available memory on the node where the printing process lives
------------------
     ethr =  9.01E-05,  avg # of iterations =  6.6

     negative rho (up, down):  0.000E+00 4.609E-02

     total cpu time spent up to now is     3121.2 secs

     total energy              =  -42146.25320658 Ry
     estimated scf accuracy    <       1.20480517 Ry

     total magnetization       =   320.77 Bohr mag/cell
     absolute magnetization    =   340.30 Bohr mag/cell

     iteration #  8     ecut=    90.00 Ry     beta= 0.20
     Davidson diagonalization with overlap

---- Real-time Memory Report at c_bands before calling an iterative solver
          2212 MiB given to the printing process from OS
          1045 MiB allocation reported by mallinfo(arena+hblkhd)
        340471 MiB available memory on the node where the printing process lives
------------------
     ethr =  5.88E-05,  avg # of iterations =  4.5

     negative rho (up, down):  0.000E+00 2.649E-02

     total cpu time spent up to now is     3532.8 secs

     total energy              =  -42146.09207779 Ry
     estimated scf accuracy    <       0.93631275 Ry

     total magnetization       =   316.91 Bohr mag/cell
     absolute magnetization    =   336.60 Bohr mag/cell

     iteration #  9     ecut=    90.00 Ry     beta= 0.20
     Davidson diagonalization with overlap

---- Real-time Memory Report at c_bands before calling an iterative solver
          2214 MiB given to the printing process from OS
          1048 MiB allocation reported by mallinfo(arena+hblkhd)
        340368 MiB available memory on the node where the printing process lives
------------------
     ethr =  4.57E-05,  avg # of iterations =  5.5

     negative rho (up, down):  0.000E+00 2.251E-02

     total cpu time spent up to now is     4035.5 secs

     total energy              =  -42146.38135414 Ry
     estimated scf accuracy    <       1.08859631 Ry

     total magnetization       =   295.77 Bohr mag/cell
     absolute magnetization    =   316.25 Bohr mag/cell

     iteration # 10     ecut=    90.00 Ry     beta= 0.20
     Davidson diagonalization with overlap

---- Real-time Memory Report at c_bands before calling an iterative solver
          2219 MiB given to the printing process from OS
          1051 MiB allocation reported by mallinfo(arena+hblkhd)
        340234 MiB available memory on the node where the printing process lives
------------------
     ethr =  4.57E-05,  avg # of iterations =  1.6

     negative rho (up, down):  0.000E+00 2.331E-02

     total cpu time spent up to now is     4414.8 secs

     total energy              =  -42146.31911641 Ry
     estimated scf accuracy    <       0.64878120 Ry

     total magnetization       =   291.02 Bohr mag/cell
     absolute magnetization    =   311.59 Bohr mag/cell

     iteration # 11     ecut=    90.00 Ry     beta= 0.20
     Davidson diagonalization with overlap

---- Real-time Memory Report at c_bands before calling an iterative solver
          2222 MiB given to the printing process from OS
          1051 MiB allocation reported by mallinfo(arena+hblkhd)
        340230 MiB available memory on the node where the printing process lives
------------------
     ethr =  3.17E-05,  avg # of iterations =  2.5

     negative rho (up, down):  0.000E+00 1.832E-02

     total cpu time spent up to now is     4811.2 secs

     total energy              =  -42146.36221551 Ry
     estimated scf accuracy    <       0.25763303 Ry

     total magnetization       =   292.98 Bohr mag/cell
     absolute magnetization    =   313.29 Bohr mag/cell

     iteration # 12     ecut=    90.00 Ry     beta= 0.20
     Davidson diagonalization with overlap

---- Real-time Memory Report at c_bands before calling an iterative solver
          2227 MiB given to the printing process from OS
          1051 MiB allocation reported by mallinfo(arena+hblkhd)
        340208 MiB available memory on the node where the printing process lives
------------------
     ethr =  1.26E-05,  avg # of iterations =  2.6

     negative rho (up, down):  0.000E+00 1.466E-02

     total cpu time spent up to now is     5230.3 secs

     total energy              =  -42146.38359910 Ry
     estimated scf accuracy    <       0.32311734 Ry

     total magnetization       =   293.18 Bohr mag/cell
     absolute magnetization    =   313.07 Bohr mag/cell

     iteration # 13     ecut=    90.00 Ry     beta= 0.20
     Davidson diagonalization with overlap

---- Real-time Memory Report at c_bands before calling an iterative solver
          2227 MiB given to the printing process from OS
          1051 MiB allocation reported by mallinfo(arena+hblkhd)
        340205 MiB available memory on the node where the printing process lives
------------------
     ethr =  1.26E-05,  avg # of iterations =  2.5

     negative rho (up, down):  0.000E+00 9.399E-03

     total cpu time spent up to now is     5631.7 secs

     total energy              =  -42146.40981278 Ry
     estimated scf accuracy    <       0.61480076 Ry

     total magnetization       =   288.94 Bohr mag/cell
     absolute magnetization    =   308.84 Bohr mag/cell

     iteration # 14     ecut=    90.00 Ry     beta= 0.20
     Davidson diagonalization with overlap

---- Real-time Memory Report at c_bands before calling an iterative solver
          2227 MiB given to the printing process from OS
          1051 MiB allocation reported by mallinfo(arena+hblkhd)
        340201 MiB available memory on the node where the printing process lives
------------------
     ethr =  1.26E-05,  avg # of iterations =  4.3

     negative rho (up, down):  0.000E+00 9.424E-03

     total cpu time spent up to now is     6081.2 secs

     total energy              =  -42146.43948364 Ry
     estimated scf accuracy    <       0.09499720 Ry

     total magnetization       =   284.33 Bohr mag/cell
     absolute magnetization    =   303.21 Bohr mag/cell

     iteration # 15     ecut=    90.00 Ry     beta= 0.20
     Davidson diagonalization with overlap

---- Real-time Memory Report at c_bands before calling an iterative solver
          2227 MiB given to the printing process from OS
          1051 MiB allocation reported by mallinfo(arena+hblkhd)
        340211 MiB available memory on the node where the printing process lives
------------------
     ethr =  4.64E-06,  avg # of iterations =  4.5

     negative rho (up, down):  0.000E+00 9.104E-03

     total cpu time spent up to now is     6500.9 secs

     total energy              =  -42146.44243484 Ry
     estimated scf accuracy    <       0.18559610 Ry

     total magnetization       =   284.91 Bohr mag/cell
     absolute magnetization    =   303.61 Bohr mag/cell

     iteration # 16     ecut=    90.00 Ry     beta= 0.20
     Davidson diagonalization with overlap

---- Real-time Memory Report at c_bands before calling an iterative solver
          2227 MiB given to the printing process from OS
          1051 MiB allocation reported by mallinfo(arena+hblkhd)
        340208 MiB available memory on the node where the printing process lives
------------------
     ethr =  4.64E-06,  avg # of iterations =  2.4

     negative rho (up, down):  0.000E+00 8.766E-03

     total cpu time spent up to now is     6900.9 secs

     total energy              =  -42146.45674524 Ry
     estimated scf accuracy    <       0.05706890 Ry

     total magnetization       =   284.29 Bohr mag/cell
     absolute magnetization    =   302.79 Bohr mag/cell

     iteration # 17     ecut=    90.00 Ry     beta= 0.20
     Davidson diagonalization with overlap

---- Real-time Memory Report at c_bands before calling an iterative solver
          2230 MiB given to the printing process from OS
          1051 MiB allocation reported by mallinfo(arena+hblkhd)
        340183 MiB available memory on the node where the printing process lives
------------------
     ethr =  2.79E-06,  avg # of iterations =  2.1

     negative rho (up, down):  0.000E+00 8.188E-03

     total cpu time spent up to now is     7300.7 secs

     total energy              =  -42146.46274185 Ry
     estimated scf accuracy    <       0.08855889 Ry

     total magnetization       =   284.53 Bohr mag/cell
     absolute magnetization    =   302.78 Bohr mag/cell

     iteration # 18     ecut=    90.00 Ry     beta= 0.20
     Davidson diagonalization with overlap

---- Real-time Memory Report at c_bands before calling an iterative solver
          2230 MiB given to the printing process from OS
          1051 MiB allocation reported by mallinfo(arena+hblkhd)
        340177 MiB available memory on the node where the printing process lives
------------------
     ethr =  2.79E-06,  avg # of iterations =  1.6

     negative rho (up, down):  0.000E+00 6.688E-03

     total cpu time spent up to now is     7688.1 secs

     total energy              =  -42146.48590309 Ry
     estimated scf accuracy    <       0.02672138 Ry

     total magnetization       =   283.62 Bohr mag/cell
     absolute magnetization    =   301.61 Bohr mag/cell

     iteration # 19     ecut=    90.00 Ry     beta= 0.20
     Davidson diagonalization with overlap

---- Real-time Memory Report at c_bands before calling an iterative solver
          2230 MiB given to the printing process from OS
          1051 MiB allocation reported by mallinfo(arena+hblkhd)
        340180 MiB available memory on the node where the printing process lives
------------------
     ethr =  1.30E-06,  avg # of iterations =  4.2

     negative rho (up, down):  0.000E+00 6.760E-03

     total cpu time spent up to now is     8133.6 secs

     total energy              =  -42146.48679427 Ry
     estimated scf accuracy    <       0.01509003 Ry

     total magnetization       =   284.85 Bohr mag/cell
     absolute magnetization    =   301.86 Bohr mag/cell

     iteration # 20     ecut=    90.00 Ry     beta= 0.20
     Davidson diagonalization with overlap

---- Real-time Memory Report at c_bands before calling an iterative solver
          2230 MiB given to the printing process from OS
          1051 MiB allocation reported by mallinfo(arena+hblkhd)
        340173 MiB available memory on the node where the printing process lives
------------------
     c_bands:  1 eigenvalues not converged
     ethr =  7.37E-07,  avg # of iterations =  4.5

     negative rho (up, down):  0.000E+00 6.466E-03

     total cpu time spent up to now is     8560.5 secs

     total energy              =  -42146.49017782 Ry
     estimated scf accuracy    <       0.01704957 Ry

     total magnetization       =   283.96 Bohr mag/cell
     absolute magnetization    =   300.98 Bohr mag/cell

     iteration # 21     ecut=    90.00 Ry     beta= 0.20
     Davidson diagonalization with overlap

---- Real-time Memory Report at c_bands before calling an iterative solver
          2230 MiB given to the printing process from OS
          1051 MiB allocation reported by mallinfo(arena+hblkhd)
        340156 MiB available memory on the node where the printing process lives
------------------
     ethr =  7.37E-07,  avg # of iterations =  1.8

     negative rho (up, down):  0.000E+00 6.421E-03

     total cpu time spent up to now is     8957.4 secs

     total energy              =  -42146.49115667 Ry
     estimated scf accuracy    <       0.00176229 Ry

     total magnetization       =   284.35 Bohr mag/cell
     absolute magnetization    =   301.11 Bohr mag/cell

     iteration # 22     ecut=    90.00 Ry     beta= 0.20
     Davidson diagonalization with overlap

---- Real-time Memory Report at c_bands before calling an iterative solver
          2230 MiB given to the printing process from OS
          1051 MiB allocation reported by mallinfo(arena+hblkhd)
        340152 MiB available memory on the node where the printing process lives
------------------
     ethr =  8.60E-08,  avg # of iterations =  4.5

     negative rho (up, down):  0.000E+00 6.405E-03

     total cpu time spent up to now is     9379.3 secs

     total energy              =  -42146.49142008 Ry
     estimated scf accuracy    <       0.00052829 Ry

     total magnetization       =   284.32 Bohr mag/cell
     absolute magnetization    =   301.00 Bohr mag/cell

     iteration # 23     ecut=    90.00 Ry     beta= 0.20
     Davidson diagonalization with overlap

---- Real-time Memory Report at c_bands before calling an iterative solver
          2230 MiB given to the printing process from OS
          1051 MiB allocation reported by mallinfo(arena+hblkhd)
        340165 MiB available memory on the node where the printing process lives
------------------
     ethr =  2.58E-08,  avg # of iterations =  4.8

     negative rho (up, down):  0.000E+00 6.400E-03

     total cpu time spent up to now is     9805.1 secs

     total energy              =  -42146.49147109 Ry
     estimated scf accuracy    <       0.00273319 Ry

     total magnetization       =   284.29 Bohr mag/cell
     absolute magnetization    =   300.90 Bohr mag/cell

     iteration # 24     ecut=    90.00 Ry     beta= 0.20
     Davidson diagonalization with overlap

---- Real-time Memory Report at c_bands before calling an iterative solver
          2230 MiB given to the printing process from OS
          1051 MiB allocation reported by mallinfo(arena+hblkhd)
        340151 MiB available memory on the node where the printing process lives
------------------
     ethr =  2.58E-08,  avg # of iterations =  1.9

     negative rho (up, down):  0.000E+00 6.348E-03

     total cpu time spent up to now is    10211.4 secs

     total energy              =  -42146.49172494 Ry
     estimated scf accuracy    <       0.00066620 Ry

     total magnetization       =   284.23 Bohr mag/cell
     absolute magnetization    =   300.80 Bohr mag/cell

     iteration # 25     ecut=    90.00 Ry     beta= 0.20
     Davidson diagonalization with overlap

---- Real-time Memory Report at c_bands before calling an iterative solver
          2230 MiB given to the printing process from OS
          1051 MiB allocation reported by mallinfo(arena+hblkhd)
        340164 MiB available memory on the node where the printing process lives
------------------
     ethr =  2.58E-08,  avg # of iterations =  2.6

     negative rho (up, down):  0.000E+00 6.339E-03

     total cpu time spent up to now is    10629.8 secs

     total energy              =  -42146.49167479 Ry
     estimated scf accuracy    <       0.00110789 Ry

     total magnetization       =   284.15 Bohr mag/cell
     absolute magnetization    =   300.64 Bohr mag/cell

     iteration # 26     ecut=    90.00 Ry     beta= 0.20
     Davidson diagonalization with overlap

---- Real-time Memory Report at c_bands before calling an iterative solver
          2230 MiB given to the printing process from OS
          1051 MiB allocation reported by mallinfo(arena+hblkhd)
        340148 MiB available memory on the node where the printing process lives
------------------
     ethr =  2.58E-08,  avg # of iterations =  2.0

     negative rho (up, down):  0.000E+00 6.326E-03

     total cpu time spent up to now is    11035.3 secs

     total energy              =  -42146.49183099 Ry
     estimated scf accuracy    <       0.00218164 Ry

     total magnetization       =   284.19 Bohr mag/cell
     absolute magnetization    =   300.67 Bohr mag/cell

     iteration # 27     ecut=    90.00 Ry     beta= 0.20
     Davidson diagonalization with overlap

---- Real-time Memory Report at c_bands before calling an iterative solver
          2230 MiB given to the printing process from OS
          1051 MiB allocation reported by mallinfo(arena+hblkhd)
        340144 MiB available memory on the node where the printing process lives
------------------
     ethr =  2.58E-08,  avg # of iterations =  3.2

     negative rho (up, down):  0.000E+00 6.320E-03

     total cpu time spent up to now is    11473.7 secs

     total energy              =  -42146.49195732 Ry
     estimated scf accuracy    <       0.00016431 Ry

     total magnetization       =   284.00 Bohr mag/cell
     absolute magnetization    =   300.37 Bohr mag/cell

     iteration # 28     ecut=    90.00 Ry     beta= 0.20
     Davidson diagonalization with overlap

---- Real-time Memory Report at c_bands before calling an iterative solver
          2230 MiB given to the printing process from OS
          1051 MiB allocation reported by mallinfo(arena+hblkhd)
        340140 MiB available memory on the node where the printing process lives
------------------
     ethr =  8.02E-09,  avg # of iterations =  3.8

     negative rho (up, down):  0.000E+00 6.323E-03

     total cpu time spent up to now is    11890.5 secs

     total energy              =  -42146.49198593 Ry
     estimated scf accuracy    <       0.00004265 Ry

     total magnetization       =   283.99 Bohr mag/cell
     absolute magnetization    =   300.33 Bohr mag/cell

     iteration # 29     ecut=    90.00 Ry     beta= 0.20
     Davidson diagonalization with overlap

---- Real-time Memory Report at c_bands before calling an iterative solver
          2230 MiB given to the printing process from OS
          1051 MiB allocation reported by mallinfo(arena+hblkhd)
        340109 MiB available memory on the node where the printing process lives
------------------
     ethr =  2.08E-09,  avg # of iterations =  4.8

     negative rho (up, down):  0.000E+00 6.325E-03

     total cpu time spent up to now is    12344.3 secs

     total energy              =  -42146.49199274 Ry
     estimated scf accuracy    <       0.00005886 Ry

     total magnetization       =   283.93 Bohr mag/cell
     absolute magnetization    =   300.24 Bohr mag/cell

     iteration # 30     ecut=    90.00 Ry     beta= 0.20
     Davidson diagonalization with overlap

---- Real-time Memory Report at c_bands before calling an iterative solver
          2230 MiB given to the printing process from OS
          1051 MiB allocation reported by mallinfo(arena+hblkhd)
        340082 MiB available memory on the node where the printing process lives
------------------
     ethr =  2.08E-09,  avg # of iterations =  1.8

     negative rho (up, down):  0.000E+00 6.317E-03

     total cpu time spent up to now is    12755.1 secs

     total energy              =  -42146.49200201 Ry
     estimated scf accuracy    <       0.00001551 Ry

     total magnetization       =   283.92 Bohr mag/cell
     absolute magnetization    =   300.22 Bohr mag/cell

     iteration # 31     ecut=    90.00 Ry     beta= 0.20
     Davidson diagonalization with overlap

---- Real-time Memory Report at c_bands before calling an iterative solver
          2230 MiB given to the printing process from OS
          1051 MiB allocation reported by mallinfo(arena+hblkhd)
        340090 MiB available memory on the node where the printing process lives
------------------
     ethr =  7.57E-10,  avg # of iterations =  3.6

     negative rho (up, down):  0.000E+00 6.317E-03

     total cpu time spent up to now is    13187.6 secs

     total energy              =  -42146.49200562 Ry
     estimated scf accuracy    <       0.00002095 Ry

     total magnetization       =   283.90 Bohr mag/cell
     absolute magnetization    =   300.18 Bohr mag/cell

     iteration # 32     ecut=    90.00 Ry     beta= 0.20
     Davidson diagonalization with overlap

---- Real-time Memory Report at c_bands before calling an iterative solver
          2230 MiB given to the printing process from OS
          1051 MiB allocation reported by mallinfo(arena+hblkhd)
        340067 MiB available memory on the node where the printing process lives
------------------
     ethr =  7.57E-10,  avg # of iterations =  2.5

     negative rho (up, down):  0.000E+00 6.306E-03

     total cpu time spent up to now is    13597.2 secs

     total energy              =  -42146.49201054 Ry
     estimated scf accuracy    <       0.00000812 Ry

     total magnetization       =   283.87 Bohr mag/cell
     absolute magnetization    =   300.14 Bohr mag/cell

     iteration # 33     ecut=    90.00 Ry     beta= 0.20
     Davidson diagonalization with overlap

---- Real-time Memory Report at c_bands before calling an iterative solver
          2230 MiB given to the printing process from OS
          1051 MiB allocation reported by mallinfo(arena+hblkhd)
        340072 MiB available memory on the node where the printing process lives
------------------
     ethr =  3.97E-10,  avg # of iterations =  4.8

     negative rho (up, down):  0.000E+00 6.295E-03

     total cpu time spent up to now is    14059.6 secs

     total energy              =  -42146.49201224 Ry
     estimated scf accuracy    <       0.00003117 Ry

     total magnetization       =   283.85 Bohr mag/cell
     absolute magnetization    =   300.11 Bohr mag/cell

     iteration # 34     ecut=    90.00 Ry     beta= 0.20
     Davidson diagonalization with overlap

---- Real-time Memory Report at c_bands before calling an iterative solver
          2230 MiB given to the printing process from OS
          1051 MiB allocation reported by mallinfo(arena+hblkhd)
        340036 MiB available memory on the node where the printing process lives
------------------
     ethr =  3.97E-10,  avg # of iterations =  3.0

     negative rho (up, down):  0.000E+00 6.293E-03

     total cpu time spent up to now is    14476.9 secs

     total energy              =  -42146.49201374 Ry
     estimated scf accuracy    <       0.00002833 Ry

     total magnetization       =   283.84 Bohr mag/cell
     absolute magnetization    =   300.08 Bohr mag/cell

     iteration # 35     ecut=    90.00 Ry     beta= 0.20
     Davidson diagonalization with overlap

---- Real-time Memory Report at c_bands before calling an iterative solver
          2230 MiB given to the printing process from OS
          1051 MiB allocation reported by mallinfo(arena+hblkhd)
        340062 MiB available memory on the node where the printing process lives
------------------
     ethr =  3.97E-10,  avg # of iterations =  2.0

     negative rho (up, down):  0.000E+00 6.292E-03

     total cpu time spent up to now is    14883.3 secs

     total energy              =  -42146.49201422 Ry
     estimated scf accuracy    <       0.00000680 Ry

     total magnetization       =   283.83 Bohr mag/cell
     absolute magnetization    =   300.07 Bohr mag/cell

     iteration # 36     ecut=    90.00 Ry     beta= 0.20
     Davidson diagonalization with overlap

---- Real-time Memory Report at c_bands before calling an iterative solver
          2230 MiB given to the printing process from OS
          1051 MiB allocation reported by mallinfo(arena+hblkhd)
        340029 MiB available memory on the node where the printing process lives
------------------
     ethr =  3.32E-10,  avg # of iterations =  1.7

     negative rho (up, down):  0.000E+00 6.289E-03

     total cpu time spent up to now is    15287.9 secs

     total energy              =  -42146.49201453 Ry
     estimated scf accuracy    <       0.00000858 Ry

     total magnetization       =   283.83 Bohr mag/cell
     absolute magnetization    =   300.07 Bohr mag/cell

     iteration # 37     ecut=    90.00 Ry     beta= 0.20
     Davidson diagonalization with overlap

---- Real-time Memory Report at c_bands before calling an iterative solver
          2230 MiB given to the printing process from OS
          1051 MiB allocation reported by mallinfo(arena+hblkhd)
        340057 MiB available memory on the node where the printing process lives
------------------
     ethr =  3.32E-10,  avg # of iterations =  1.4

     negative rho (up, down):  0.000E+00 6.283E-03

     total cpu time spent up to now is    15676.0 secs

     total energy              =  -42146.49201521 Ry
     estimated scf accuracy    <       0.00000189 Ry

     total magnetization       =   283.82 Bohr mag/cell
     absolute magnetization    =   300.06 Bohr mag/cell

     iteration # 38     ecut=    90.00 Ry     beta= 0.20
     Davidson diagonalization with overlap

---- Real-time Memory Report at c_bands before calling an iterative solver
          2230 MiB given to the printing process from OS
          1051 MiB allocation reported by mallinfo(arena+hblkhd)
        340045 MiB available memory on the node where the printing process lives
------------------
     ethr =  9.23E-11,  avg # of iterations =  2.1

     negative rho (up, down):  0.000E+00 6.282E-03

     total cpu time spent up to now is    16082.6 secs

     total energy              =  -42146.49201527 Ry
     estimated scf accuracy    <       0.00000441 Ry

     total magnetization       =   283.83 Bohr mag/cell
     absolute magnetization    =   300.06 Bohr mag/cell

     iteration # 39     ecut=    90.00 Ry     beta= 0.20
     Davidson diagonalization with overlap

---- Real-time Memory Report at c_bands before calling an iterative solver
          2230 MiB given to the printing process from OS
          1051 MiB allocation reported by mallinfo(arena+hblkhd)
        340052 MiB available memory on the node where the printing process lives
------------------
     ethr =  9.23E-11,  avg # of iterations =  1.4

     negative rho (up, down):  0.000E+00 6.281E-03

     total cpu time spent up to now is    16470.9 secs

     total energy              =  -42146.49201547 Ry
     estimated scf accuracy    <       0.00000035 Ry

     total magnetization       =   283.82 Bohr mag/cell
     absolute magnetization    =   300.05 Bohr mag/cell

     iteration # 40     ecut=    90.00 Ry     beta= 0.20
     Davidson diagonalization with overlap

---- Real-time Memory Report at c_bands before calling an iterative solver
          2230 MiB given to the printing process from OS
          1051 MiB allocation reported by mallinfo(arena+hblkhd)
        340038 MiB available memory on the node where the printing process lives
------------------
     ethr =  1.70E-11,  avg # of iterations =  4.1

     negative rho (up, down):  0.000E+00 6.277E-03

     total cpu time spent up to now is    16900.0 secs

     total energy              =  -42146.49201559 Ry
     estimated scf accuracy    <       0.00000187 Ry

     total magnetization       =   283.82 Bohr mag/cell
     absolute magnetization    =   300.05 Bohr mag/cell

     iteration # 41     ecut=    90.00 Ry     beta= 0.20
     Davidson diagonalization with overlap

---- Real-time Memory Report at c_bands before calling an iterative solver
          2230 MiB given to the printing process from OS
          1051 MiB allocation reported by mallinfo(arena+hblkhd)
        340028 MiB available memory on the node where the printing process lives
------------------
     ethr =  1.70E-11,  avg # of iterations =  2.4

     negative rho (up, down):  0.000E+00 6.276E-03

     total cpu time spent up to now is    17307.8 secs

     total energy              =  -42146.49201564 Ry
     estimated scf accuracy    <       0.00000024 Ry

     total magnetization       =   283.82 Bohr mag/cell
     absolute magnetization    =   300.05 Bohr mag/cell

     iteration # 42     ecut=    90.00 Ry     beta= 0.20
     Davidson diagonalization with overlap

---- Real-time Memory Report at c_bands before calling an iterative solver
          2230 MiB given to the printing process from OS
          1051 MiB allocation reported by mallinfo(arena+hblkhd)
        340030 MiB available memory on the node where the printing process lives
------------------
     ethr =  1.17E-11,  avg # of iterations =  2.0

     negative rho (up, down):  0.000E+00 6.275E-03

     total cpu time spent up to now is    17706.9 secs

     total energy              =  -42146.49201568 Ry
     estimated scf accuracy    <       0.00000016 Ry

     total magnetization       =   283.82 Bohr mag/cell
     absolute magnetization    =   300.05 Bohr mag/cell

     iteration # 43     ecut=    90.00 Ry     beta= 0.20
     Davidson diagonalization with overlap

---- Real-time Memory Report at c_bands before calling an iterative solver
          2230 MiB given to the printing process from OS
          1051 MiB allocation reported by mallinfo(arena+hblkhd)
        340009 MiB available memory on the node where the printing process lives
------------------
[...]
     atom   86 type  1   force =     0.00000000    0.00000000    0.00000000
     atom   87 type  1   force =     0.00000000    0.00000000    0.00000000
     atom   88 type  1   force =     0.00000000    0.00000000    0.00000000
     atom   89 type  1   force =     0.00000000    0.00000000    0.00000000
     atom   90 type  1   force =     0.00000000    0.00000000    0.00000000
     atom   91 type  1   force =     0.00000000    0.00000000    0.00000000
     atom   92 type  1   force =     0.00000000    0.00000000    0.00000000
     atom   93 type  1   force =     0.00000000    0.00000000    0.00000000
     atom   94 type  1   force =     0.00000000    0.00000000    0.00000000
     atom   95 type  1   force =     0.00000000    0.00000000    0.00000000
     atom   96 type  1   force =     0.00000000    0.00000000    0.00000000
     atom   97 type  1   force =     0.00000000    0.00000000    0.00000000
     atom   98 type  1   force =     0.00000000    0.00000000    0.00000000
     atom   99 type  1   force =     0.00000000    0.00000000    0.00000000
     atom  100 type  1   force =     0.00000000    0.00000000    0.00000000
     atom  101 type  1   force =     0.00000000    0.00000000    0.00000000
     atom  102 type  1   force =     0.00000000    0.00000000    0.00000000
     atom  103 type  1   force =     0.00000000    0.00000000    0.00000000
     atom  104 type  1   force =     0.00000000    0.00000000    0.00000000
     atom  105 type  1   force =     0.00000000    0.00000000    0.00000000
     atom  106 type  1   force =     0.00000000    0.00000000    0.00000000
     atom  107 type  1   force =     0.00000000    0.00000000    0.00000000
     atom  108 type  1   force =     0.00000000    0.00000000    0.00000000
     atom  109 type  1   force =     0.00000000    0.00000000    0.00000000
     atom  110 type  1   force =     0.00000000    0.00000000    0.00000000
     atom  111 type  1   force =     0.00000000    0.00000000    0.00000000
     atom  112 type  1   force =     0.00000000    0.00000000    0.00000000
     atom  113 type  1   force =     0.00000000    0.00000000    0.00000000
     atom  114 type  1   force =     0.00000000    0.00000000    0.00000000
     atom  115 type  1   force =     0.00000000    0.00000000    0.00000000
     atom  116 type  1   force =     0.00000000    0.00000000    0.00000000
     atom  117 type  1   force =     0.00000000    0.00000000    0.00000000
     atom  118 type  1   force =     0.00000000    0.00000000    0.00000000
     atom  119 type  1   force =     0.00000000    0.00000000    0.00000000
     atom  120 type  1   force =     0.00000000    0.00000000    0.00000000
     atom  121 type  1   force =     0.00000000    0.00000000    0.00000000
     atom  122 type  1   force =     0.00000000    0.00000000    0.00000000
     atom  123 type  1   force =     0.00000000    0.00000000    0.00000000
     atom  124 type  1   force =     0.00000000    0.00000000    0.00000000
     atom  125 type  1   force =     0.00000000    0.00000000    0.00000000
     atom  126 type  1   force =     0.00000000    0.00000000    0.00000000
     atom  127 type  1   force =     0.00000000    0.00000000    0.00000000
     atom  128 type  1   force =     0.00000000    0.00000000    0.00000000
     The SCF correction term to forces
     atom    1 type  1   force =    -0.00000000   -0.00000000   -0.00000000
     atom    2 type  1   force =    -0.00002649   -0.00002649   -0.00002649
     atom    3 type  1   force =     0.00000000   -0.00000000   -0.00001681
     atom    4 type  1   force =    -0.00008181   -0.00008181   -0.00004090
     atom    5 type  1   force =    -0.00000000   -0.00000000    0.00000000
     atom    6 type  1   force =    -0.00008181   -0.00008181    0.00004090
     atom    7 type  1   force =     0.00000000   -0.00000000    0.00001681
     atom    8 type  1   force =    -0.00002649   -0.00002649    0.00002649
     atom    9 type  1   force =     0.00000000   -0.00001681   -0.00000000
     atom   10 type  1   force =    -0.00008181   -0.00004090   -0.00008181
     atom   11 type  1   force =     0.00000000   -0.00008208   -0.00008208
     atom   12 type  1   force =    -0.00005247   -0.00005245   -0.00005245
     atom   13 type  1   force =    -0.00000000   -0.00010066    0.00000000
     atom   14 type  1   force =    -0.00005247   -0.00005245    0.00005245
     atom   15 type  1   force =     0.00000000   -0.00008208    0.00008208
     atom   16 type  1   force =    -0.00008181   -0.00004090    0.00008181
     atom   17 type  1   force =     0.00000000    0.00000000   -0.00000000
     atom   18 type  1   force =    -0.00008181    0.00004090   -0.00008181
     atom   19 type  1   force =     0.00000000   -0.00000000   -0.00010066
     atom   20 type  1   force =    -0.00005247    0.00005245   -0.00005245
     atom   21 type  1   force =    -0.00000000   -0.00000000    0.00000000
     atom   22 type  1   force =    -0.00005247    0.00005245    0.00005245
     atom   23 type  1   force =    -0.00000000   -0.00000000    0.00010066
     atom   24 type  1   force =    -0.00008181    0.00004090    0.00008181
     atom   25 type  1   force =     0.00000000    0.00001681   -0.00000000
     atom   26 type  1   force =    -0.00002649    0.00002649   -0.00002649
     atom   27 type  1   force =     0.00000000    0.00008208   -0.00008208
     atom   28 type  1   force =    -0.00008181    0.00008181   -0.00004090
     atom   29 type  1   force =    -0.00000000    0.00010066    0.00000000
     atom   30 type  1   force =    -0.00008181    0.00008181    0.00004090
     atom   31 type  1   force =     0.00000000    0.00008208    0.00008208
     atom   32 type  1   force =    -0.00002649    0.00002649    0.00002649
     atom   33 type  1   force =    -0.00001681   -0.00000000   -0.00000000
     atom   34 type  1   force =    -0.00004090   -0.00008181   -0.00008181
     atom   35 type  1   force =    -0.00008208    0.00000000   -0.00008208
     atom   36 type  1   force =    -0.00005245   -0.00005247   -0.00005245
     atom   37 type  1   force =    -0.00010066    0.00000000    0.00000000
     atom   38 type  1   force =    -0.00005245   -0.00005247    0.00005245
     atom   39 type  1   force =    -0.00008208    0.00000000    0.00008208
     atom   40 type  1   force =    -0.00004090   -0.00008181    0.00008181
     atom   41 type  1   force =    -0.00008208   -0.00008208   -0.00000000
     atom   42 type  1   force =    -0.00005245   -0.00005245   -0.00005247
     atom   43 type  1   force =    -0.00007555   -0.00007555   -0.00007555
     atom   44 type  1   force =    -0.00000499   -0.00000499   -0.00000499
     atom   45 type  1   force =    -0.00007000   -0.00007000    0.00000000
     atom   46 type  1   force =    -0.00000499   -0.00000499    0.00000499
     atom   47 type  1   force =    -0.00007555   -0.00007555    0.00007555
     atom   48 type  1   force =    -0.00005245   -0.00005245    0.00005247
     atom   49 type  1   force =    -0.00010066    0.00000000   -0.00000000
     atom   50 type  1   force =    -0.00005245    0.00005245   -0.00005247
     atom   51 type  1   force =    -0.00007000   -0.00000000   -0.00007000
     atom   52 type  1   force =    -0.00000499    0.00000499   -0.00000499
     atom   53 type  1   force =    -0.00001710   -0.00000000    0.00000000
     atom   54 type  1   force =    -0.00000499    0.00000499    0.00000499
     atom   55 type  1   force =    -0.00007000    0.00000000    0.00007000
     atom   56 type  1   force =    -0.00005245    0.00005245    0.00005247
     atom   57 type  1   force =    -0.00008208    0.00008208   -0.00000000
     atom   58 type  1   force =    -0.00004090    0.00008181   -0.00008181
     atom   59 type  1   force =    -0.00007555    0.00007555   -0.00007555
     atom   60 type  1   force =    -0.00005245    0.00005247   -0.00005245
     atom   61 type  1   force =    -0.00007000    0.00007000    0.00000000
     atom   62 type  1   force =    -0.00005245    0.00005247    0.00005245
     atom   63 type  1   force =    -0.00007555    0.00007555    0.00007555
     atom   64 type  1   force =    -0.00004090    0.00008181    0.00008181
     atom   65 type  1   force =    -0.00000000    0.00000000   -0.00000000
     atom   66 type  1   force =     0.00004090   -0.00008181   -0.00008181
     atom   67 type  1   force =     0.00000000   -0.00000000   -0.00010066
     atom   68 type  1   force =     0.00005245   -0.00005247   -0.00005245
     atom   69 type  1   force =    -0.00000000    0.00000000    0.00000000
     atom   70 type  1   force =     0.00005245   -0.00005247    0.00005245
     atom   71 type  1   force =     0.00000000   -0.00000000    0.00010066
     atom   72 type  1   force =     0.00004090   -0.00008181    0.00008181
     atom   73 type  1   force =    -0.00000000   -0.00010066   -0.00000000
     atom   74 type  1   force =     0.00005245   -0.00005245   -0.00005247
     atom   75 type  1   force =     0.00000000   -0.00007000   -0.00007000
     atom   76 type  1   force =     0.00000499   -0.00000499   -0.00000499
     atom   77 type  1   force =     0.00000000   -0.00001710    0.00000000
     atom   78 type  1   force =     0.00000499   -0.00000499    0.00000499
     atom   79 type  1   force =     0.00000000   -0.00007000    0.00007000
     atom   80 type  1   force =     0.00005245   -0.00005245    0.00005247
     atom   81 type  1   force =    -0.00000000   -0.00000000   -0.00000000
     atom   82 type  1   force =     0.00005245    0.00005245   -0.00005247
     atom   83 type  1   force =     0.00000000   -0.00000000   -0.00001710
     atom   84 type  1   force =     0.00000499    0.00000499   -0.00000499
     atom   85 type  1   force =     0.00000000    0.00000000    0.00000000
     atom   86 type  1   force =     0.00000499    0.00000499    0.00000499
     atom   87 type  1   force =     0.00000000   -0.00000000    0.00001710
     atom   88 type  1   force =     0.00005245    0.00005245    0.00005247
     atom   89 type  1   force =    -0.00000000    0.00010066   -0.00000000
     atom   90 type  1   force =     0.00004090    0.00008181   -0.00008181
     atom   91 type  1   force =    -0.00000000    0.00007000   -0.00007000
     atom   92 type  1   force =     0.00005245    0.00005247   -0.00005245
     atom   93 type  1   force =     0.00000000    0.00001710    0.00000000
     atom   94 type  1   force =     0.00005245    0.00005247    0.00005245
     atom   95 type  1   force =     0.00000000    0.00007000    0.00007000
     atom   96 type  1   force =     0.00004090    0.00008181    0.00008181
     atom   97 type  1   force =     0.00001681    0.00000000   -0.00000000
     atom   98 type  1   force =     0.00002649   -0.00002649   -0.00002649
     atom   99 type  1   force =     0.00008208   -0.00000000   -0.00008208
     atom  100 type  1   force =     0.00008181   -0.00008181   -0.00004090
     atom  101 type  1   force =     0.00010066   -0.00000000    0.00000000
     atom  102 type  1   force =     0.00008181   -0.00008181    0.00004090
     atom  103 type  1   force =     0.00008208    0.00000000    0.00008208
     atom  104 type  1   force =     0.00002649   -0.00002649    0.00002649
     atom  105 type  1   force =     0.00008208   -0.00008208   -0.00000000
     atom  106 type  1   force =     0.00008181   -0.00004090   -0.00008181
     atom  107 type  1   force =     0.00007555   -0.00007555   -0.00007555
     atom  108 type  1   force =     0.00005247   -0.00005245   -0.00005245
     atom  109 type  1   force =     0.00007000   -0.00007000    0.00000000
     atom  110 type  1   force =     0.00005247   -0.00005245    0.00005245
     atom  111 type  1   force =     0.00007555   -0.00007555    0.00007555
     atom  112 type  1   force =     0.00008181   -0.00004090    0.00008181
     atom  113 type  1   force =     0.00010066   -0.00000000   -0.00000000
     atom  114 type  1   force =     0.00008181    0.00004090   -0.00008181
     atom  115 type  1   force =     0.00007000   -0.00000000   -0.00007000
     atom  116 type  1   force =     0.00005247    0.00005245   -0.00005245
     atom  117 type  1   force =     0.00001710   -0.00000000    0.00000000
     atom  118 type  1   force =     0.00005247    0.00005245    0.00005245
     atom  119 type  1   force =     0.00007000   -0.00000000    0.00007000
     atom  120 type  1   force =     0.00008181    0.00004090    0.00008181
     atom  121 type  1   force =     0.00008208    0.00008208   -0.00000000
     atom  122 type  1   force =     0.00002649    0.00002649   -0.00002649
     atom  123 type  1   force =     0.00007555    0.00007555   -0.00007555
     atom  124 type  1   force =     0.00008181    0.00008181   -0.00004090
     atom  125 type  1   force =     0.00007000    0.00007000    0.00000000
     atom  126 type  1   force =     0.00008181    0.00008181    0.00004090
     atom  127 type  1   force =     0.00007555    0.00007555    0.00007555
     atom  128 type  1   force =     0.00002649    0.00002649    0.00002649

     Total force =     0.000043     Total SCF correction =     0.001058
     SCF correction compared to forces is large: reduce conv_thr to get better values


     Computing stress (Cartesian axis) and pressure


     negative rho (up, down):  0.000E+00 6.274E-03
          total   stress  (Ry/bohr**3)                   (kbar)     P=      -72.80
  -0.00049489   0.00000000   0.00000000          -72.80        0.00        0.00
   0.00000000  -0.00049489   0.00000000            0.00      -72.80        0.00
   0.00000000   0.00000000  -0.00049489            0.00        0.00      -72.80

     kinetic stress (kbar)  95422.09      0.00      0.00
                                0.00  95422.09      0.00
                                0.00      0.00  95422.09

     local   stress (kbar)  12108.99      0.00      0.00
                                0.00  12108.99      0.00
                                0.00      0.00  12108.99

     nonloc. stress (kbar) -26161.02      0.00      0.00
                                0.00 -26161.02      0.00
                                0.00      0.00 -26161.02

     hartree stress (kbar)  40796.42      0.00     -0.00
                                0.00  40796.42     -0.00
                               -0.00     -0.00  40796.42

     exc-cor stress (kbar) -13739.51      0.00      0.00
                                0.00 -13739.51     -0.00
                                0.00     -0.00 -13739.51

     corecor stress (kbar)  -2619.83     -0.00      0.00
                               -0.00  -2619.83     -0.00
                                0.00     -0.00  -2619.83

     ewald   stress (kbar)-105879.93     -0.00      0.00
                               -0.00-105879.93     -0.00
                                0.00     -0.00-105879.93

     hubbard stress (kbar)      0.00      0.00      0.00
                                0.00      0.00      0.00
                                0.00      0.00      0.00

     DFT-D   stress (kbar)      0.00      0.00      0.00
                                0.00      0.00      0.00
                                0.00      0.00      0.00

     XDM     stress (kbar)      0.00      0.00      0.00
                                0.00      0.00      0.00
                                0.00      0.00      0.00

     dft-nl  stress (kbar)      0.00      0.00      0.00
                                0.00      0.00      0.00
                                0.00      0.00      0.00

     TS-vdW  stress (kbar)      0.00      0.00      0.00
                                0.00      0.00      0.00
                                0.00      0.00      0.00

     MDB     stress (kbar)      0.00      0.00      0.00
                                0.00      0.00      0.00
                                0.00      0.00      0.00

     3D-RISM stress (kbar)      0.00      0.00      0.00
                                0.00      0.00      0.00
                                0.00      0.00      0.00

     Message from routine punch:
     Nothing written, as per user request (disk_io='none')

     init_run     :    130.65s CPU    135.56s WALL (       1 calls)
     electrons    :  18965.25s CPU  19802.16s WALL (       1 calls)
     forces       :     82.15s CPU     85.39s WALL (       1 calls)
     stress       :   1926.25s CPU   1967.77s WALL (       1 calls)

     Called by init_run:
     wfcinit      :    121.50s CPU    125.55s WALL (       1 calls)
     wfcinit:atom :      0.27s CPU      0.51s WALL (       5 calls)
     wfcinit:wfcr :    118.78s CPU    122.13s WALL (       5 calls)
     potinit      :      2.06s CPU      2.39s WALL (       1 calls)
     hinit0       :      2.43s CPU      2.53s WALL (       1 calls)

     Called by electrons:
     c_bands      :  16358.04s CPU  17068.89s WALL (      48 calls)
     sum_band     :   2474.64s CPU   2577.81s WALL (      48 calls)
     v_of_rho     :     63.75s CPU     74.04s WALL (      49 calls)
     v_h          :      2.06s CPU      2.42s WALL (      49 calls)
     v_xc         :     63.66s CPU     73.92s WALL (      51 calls)
     newd         :     36.23s CPU     45.45s WALL (      49 calls)
     PAW_pot      :     21.73s CPU     23.15s WALL (      49 calls)
     mix_rho      :      3.94s CPU      4.91s WALL (      48 calls)

     Called by c_bands:
     init_us_2    :    114.08s CPU    116.70s WALL (     495 calls)
     cegterg      :  15398.54s CPU  15968.69s WALL (     240 calls)

     Called by sum_band:
     sum_band:wei :      0.38s CPU      0.44s WALL (      48 calls)
     sum_band:loo :   2359.19s CPU   2437.97s WALL (      48 calls)
     sum_band:buf :     19.68s CPU     19.99s WALL (     240 calls)
     sum_band:ini :     44.20s CPU     44.73s WALL (     240 calls)
     sum_band:cal :    832.23s CPU    864.05s WALL (     240 calls)
     sum_band:bec :     13.01s CPU     13.17s WALL (     240 calls)
     addusdens    :     36.61s CPU     45.58s WALL (      48 calls)
                                        0.00s GPU  (      48 calls)
     addusd:skk   :      1.20s CPU      4.63s WALL (      48 calls)
                                        0.00s GPU  (      48 calls)

     Called by *egterg:
     cdiaghg      :    821.03s CPU    905.15s WALL (     899 calls)
     cegterg:over :   1602.47s CPU   1651.73s WALL (     659 calls)
     cegterg:upda :    961.61s CPU   1002.29s WALL (     659 calls)
     cegterg:last :   2555.05s CPU   2649.83s WALL (     423 calls)
     cdiaghg:chol :     66.13s CPU     76.14s WALL (     899 calls)
     cdiaghg:inve :     77.13s CPU     91.17s WALL (     899 calls)
     cdiaghg:para :    185.71s CPU    209.13s WALL (    1798 calls)
     h_psi        :   7267.96s CPU   7494.31s WALL (     904 calls)
     s_psi        :   1639.42s CPU   1660.74s WALL (     904 calls)
     g_psi        :     11.01s CPU     11.15s WALL (     659 calls)

     Called by h_psi:
     h_psi:calbec :   1776.18s CPU   1838.86s WALL (     904 calls)
     vloc_psi     :   3826.25s CPU   3941.03s WALL (     904 calls)
     add_vuspsi   :   1637.90s CPU   1662.72s WALL (     904 calls)

     General routines
     calbec       :   2765.28s CPU   2873.93s WALL (    1169 calls)
     fft          :     38.02s CPU     46.83s WALL (    1263 calls)
     ffts         :      1.36s CPU      1.86s WALL (     194 calls)
     fftw         :   2521.65s CPU   2642.03s WALL ( 1513894 calls)
     interpolate  :      4.63s CPU      5.48s WALL (      98 calls)

     Parallel routines

     PAW routines
     PAW_pot      :     21.73s CPU     23.15s WALL (      49 calls)
     PAW_symme    :      0.85s CPU      1.14s WALL (      97 calls)

     PWSCF        :  21105.96s CPU  21993.96s WALL


   This run was terminated on:  15: 5: 8  23May2025            

=------------------------------------------------------------------------------=
   JOB DONE.
=------------------------------------------------------------------------------=
