
     Program PWSCF v.7.3.1 starts on 23May2025 at  5:49:36 

     This program is part of the open-source Quantum ESPRESSO suite
     for quantum simulation of materials; please cite
         "P. Giannozzi et al., J. Phys.:Condens. Matter 21 395502 (2009);
         "P. Giannozzi et al., J. Phys.:Condens. Matter 29 465901 (2017);
         "P. Giannozzi et al., J. Chem. Phys. 152 154105 (2020);
          URL http://www.quantum-espresso.org", 
     in publications or presentations arising from this work. More details at
     http://www.quantum-espresso.org/quote

     Parallel version (MPI & OpenMP), running on     128 processor cores
     Number of MPI processes:               128
     Threads/MPI process:                     1

     MPI processes distributed on     1 nodes
     437506 MiB available memory on the printing compute node when the environment starts

     Waiting for input...
     Reading input from standard input

     Current dimensions of program PWSCF are:
     Max number of different atomic species (ntypx) = 10
     Max number of k-points (npk) =  40000
     Max angular momentum in pseudopotentials (lmaxx) =  4
     file Fe.pbe-spn-kjpaw_psl.1.0.0.UPF: wavefunction(s)  3P 3D renormalized
     Found identity + (  0.1667  0.1667  0.1667) symmetry
     This is a supercell, fractional translations are disabled
     Message from routine setup:
     using ibrav=0 with symmetry is DISCOURAGED, use correct ibrav instead

     K-points division:     npool     =       8
     R & G space division:  proc/nbgrp/npool/nimage =      16
     Subspace diagonalization in iterative solution of the eigenvalue problem:
     one sub-group per band group will be used
     ELPA distributed-memory algorithm (size of sub-group:  4*  4 procs)


     Parallelization info
     --------------------
     sticks:   dense  smooth     PW     G-vecs:    dense   smooth      PW
     Min        1420     473    126               161001    30976    4292
     Max        1422     475    127               161002    30980    4295
     Sum       22725    7589   2025              2576031   495639   68699

     Using Slab Decomposition



     bravais-lattice index     =            0
     lattice parameter (alat)  =      16.2598  a.u.
     unit-cell volume          =    4298.7603 (a.u.)^3
     number of atoms/cell      =           54
     number of atomic types    =            1
     number of electrons       =       864.00
     number of Kohn-Sham states=          518
     kinetic-energy cutoff     =      90.0000  Ry
     charge density cutoff     =    1080.0000  Ry
     scf convergence threshold =      1.0E-08
     mixing beta               =       0.2000
     number of iterations used =            8  plain     mixing
     Exchange-correlation= SLA  PW   PBX  PBC
                           (   1   4   3   4   0   0   0)

     celldm(1)=  16.259770  celldm(2)=   0.000000  celldm(3)=   0.000000
     celldm(4)=   0.000000  celldm(5)=   0.000000  celldm(6)=   0.000000

     crystal axes: (cart. coord. in units of alat)
               a(1) = (   1.000000   0.000000   0.000000 )  
               a(2) = (   0.000000   1.000000   0.000000 )  
               a(3) = (   0.000000   0.000000   1.000000 )  

     reciprocal axes: (cart. coord. in units 2 pi/alat)
               b(1) = (  1.000000  0.000000  0.000000 )  
               b(2) = (  0.000000  1.000000  0.000000 )  
               b(3) = (  0.000000  0.000000  1.000000 )  


     PseudoPot. # 1 for Fe read from file:
     ./pseudo/Fe.pbe-spn-kjpaw_psl.1.0.0.UPF
     MD5 check sum: fc81f059e5c5069939230b1155715ae8
     Pseudo is Projector augmented-wave + core cor, Zval = 16.0
     Generated using &quot;atomic&quot; code by A. Dal Corso  v.6.3
     Shape of augmentation charge: PSQ
     Using radial grid of 1191 points,  6 beta functions with: 
                l(1) =   0
                l(2) =   0
                l(3) =   1
                l(4) =   1
                l(5) =   2
                l(6) =   2
     Q(r) pseudized with 0 coefficients 


     atomic species   valence    mass     pseudopotential
     Fe               16.00    55.84500     Fe( 1.00)

     Starting magnetic structure 
     atomic species   magnetization
     Fe              0.400

     48 Sym. Ops., with inversion, found


                                    s                        frac. trans.

      isym =  1     identity                                     

 cryst.   s( 1) = (     1          0          0      )
                  (     0          1          0      )
                  (     0          0          1      )

 cart.    s( 1) = (  1.0000000  0.0000000  0.0000000 )
                  (  0.0000000  1.0000000  0.0000000 )
                  (  0.0000000  0.0000000  1.0000000 )


      isym =  2     180 deg rotation - cart. axis [0,0,1]        

 cryst.   s( 2) = (    -1          0          0      )
                  (     0         -1          0      )
                  (     0          0          1      )

 cart.    s( 2) = ( -1.0000000  0.0000000  0.0000000 )
                  (  0.0000000 -1.0000000  0.0000000 )
                  (  0.0000000  0.0000000  1.0000000 )


      isym =  3     180 deg rotation - cart. axis [0,1,0]        

 cryst.   s( 3) = (    -1          0          0      )
                  (     0          1          0      )
                  (     0          0         -1      )

 cart.    s( 3) = ( -1.0000000  0.0000000  0.0000000 )
                  (  0.0000000  1.0000000  0.0000000 )
                  (  0.0000000  0.0000000 -1.0000000 )


      isym =  4     180 deg rotation - cart. axis [1,0,0]        

 cryst.   s( 4) = (     1          0          0      )
                  (     0         -1          0      )
                  (     0          0         -1      )

 cart.    s( 4) = (  1.0000000  0.0000000  0.0000000 )
                  (  0.0000000 -1.0000000  0.0000000 )
                  (  0.0000000  0.0000000 -1.0000000 )


      isym =  5     180 deg rotation - cart. axis [1,1,0]        

 cryst.   s( 5) = (     0          1          0      )
                  (     1          0          0      )
                  (     0          0         -1      )

 cart.    s( 5) = (  0.0000000  1.0000000  0.0000000 )
                  (  1.0000000  0.0000000  0.0000000 )
                  (  0.0000000  0.0000000 -1.0000000 )


      isym =  6     180 deg rotation - cart. axis [1,-1,0]       

 cryst.   s( 6) = (     0         -1          0      )
                  (    -1          0          0      )
                  (     0          0         -1      )

 cart.    s( 6) = (  0.0000000 -1.0000000  0.0000000 )
                  ( -1.0000000  0.0000000  0.0000000 )
                  (  0.0000000  0.0000000 -1.0000000 )


      isym =  7      90 deg rotation - cart. axis [0,0,-1]       

 cryst.   s( 7) = (     0         -1          0      )
                  (     1          0          0      )
                  (     0          0          1      )

 cart.    s( 7) = (  0.0000000  1.0000000  0.0000000 )
                  ( -1.0000000  0.0000000  0.0000000 )
                  (  0.0000000  0.0000000  1.0000000 )


      isym =  8      90 deg rotation - cart. axis [0,0,1]        

 cryst.   s( 8) = (     0          1          0      )
                  (    -1          0          0      )
                  (     0          0          1      )

 cart.    s( 8) = (  0.0000000 -1.0000000  0.0000000 )
                  (  1.0000000  0.0000000  0.0000000 )
                  (  0.0000000  0.0000000  1.0000000 )


      isym =  9     180 deg rotation - cart. axis [1,0,1]        

 cryst.   s( 9) = (     0          0          1      )
                  (     0         -1          0      )
                  (     1          0          0      )

 cart.    s( 9) = (  0.0000000  0.0000000  1.0000000 )
                  (  0.0000000 -1.0000000  0.0000000 )
                  (  1.0000000  0.0000000  0.0000000 )


      isym = 10     180 deg rotation - cart. axis [-1,0,1]       

 cryst.   s(10) = (     0          0         -1      )
                  (     0         -1          0      )
                  (    -1          0          0      )

 cart.    s(10) = (  0.0000000  0.0000000 -1.0000000 )
                  (  0.0000000 -1.0000000  0.0000000 )
                  ( -1.0000000  0.0000000  0.0000000 )


      isym = 11      90 deg rotation - cart. axis [0,1,0]        

 cryst.   s(11) = (     0          0         -1      )
                  (     0          1          0      )
                  (     1          0          0      )

 cart.    s(11) = (  0.0000000  0.0000000  1.0000000 )
                  (  0.0000000  1.0000000  0.0000000 )
                  ( -1.0000000  0.0000000  0.0000000 )


      isym = 12      90 deg rotation - cart. axis [0,-1,0]       

 cryst.   s(12) = (     0          0          1      )
                  (     0          1          0      )
                  (    -1          0          0      )

 cart.    s(12) = (  0.0000000  0.0000000 -1.0000000 )
                  (  0.0000000  1.0000000  0.0000000 )
                  (  1.0000000  0.0000000  0.0000000 )


      isym = 13     180 deg rotation - cart. axis [0,1,1]        

 cryst.   s(13) = (    -1          0          0      )
                  (     0          0          1      )
                  (     0          1          0      )

 cart.    s(13) = ( -1.0000000  0.0000000  0.0000000 )
                  (  0.0000000  0.0000000  1.0000000 )
                  (  0.0000000  1.0000000  0.0000000 )


      isym = 14     180 deg rotation - cart. axis [0,1,-1]       

 cryst.   s(14) = (    -1          0          0      )
                  (     0          0         -1      )
                  (     0         -1          0      )

 cart.    s(14) = ( -1.0000000  0.0000000  0.0000000 )
                  (  0.0000000  0.0000000 -1.0000000 )
                  (  0.0000000 -1.0000000  0.0000000 )


      isym = 15      90 deg rotation - cart. axis [-1,0,0]       

 cryst.   s(15) = (     1          0          0      )
                  (     0          0         -1      )
                  (     0          1          0      )

 cart.    s(15) = (  1.0000000  0.0000000  0.0000000 )
                  (  0.0000000  0.0000000  1.0000000 )
                  (  0.0000000 -1.0000000  0.0000000 )


      isym = 16      90 deg rotation - cart. axis [1,0,0]        

 cryst.   s(16) = (     1          0          0      )
                  (     0          0          1      )
                  (     0         -1          0      )

 cart.    s(16) = (  1.0000000  0.0000000  0.0000000 )
                  (  0.0000000  0.0000000 -1.0000000 )
                  (  0.0000000  1.0000000  0.0000000 )


      isym = 17     120 deg rotation - cart. axis [-1,-1,-1]     

 cryst.   s(17) = (     0          0          1      )
                  (     1          0          0      )
                  (     0          1          0      )

 cart.    s(17) = (  0.0000000  1.0000000  0.0000000 )
                  (  0.0000000  0.0000000  1.0000000 )
                  (  1.0000000  0.0000000  0.0000000 )


      isym = 18     120 deg rotation - cart. axis [-1,1,1]       

 cryst.   s(18) = (     0          0         -1      )
                  (    -1          0          0      )
                  (     0          1          0      )

 cart.    s(18) = (  0.0000000 -1.0000000  0.0000000 )
                  (  0.0000000  0.0000000  1.0000000 )
                  ( -1.0000000  0.0000000  0.0000000 )


      isym = 19     120 deg rotation - cart. axis [1,1,-1]       

 cryst.   s(19) = (     0          0         -1      )
                  (     1          0          0      )
                  (     0         -1          0      )

 cart.    s(19) = (  0.0000000  1.0000000  0.0000000 )
                  (  0.0000000  0.0000000 -1.0000000 )
                  ( -1.0000000  0.0000000  0.0000000 )


      isym = 20     120 deg rotation - cart. axis [1,-1,1]       

 cryst.   s(20) = (     0          0          1      )
                  (    -1          0          0      )
                  (     0         -1          0      )

 cart.    s(20) = (  0.0000000 -1.0000000  0.0000000 )
                  (  0.0000000  0.0000000 -1.0000000 )
                  (  1.0000000  0.0000000  0.0000000 )


      isym = 21     120 deg rotation - cart. axis [1,1,1]        

 cryst.   s(21) = (     0          1          0      )
                  (     0          0          1      )
                  (     1          0          0      )

 cart.    s(21) = (  0.0000000  0.0000000  1.0000000 )
                  (  1.0000000  0.0000000  0.0000000 )
                  (  0.0000000  1.0000000  0.0000000 )


      isym = 22     120 deg rotation - cart. axis [-1,1,-1]      

 cryst.   s(22) = (     0         -1          0      )
                  (     0          0         -1      )
                  (     1          0          0      )

 cart.    s(22) = (  0.0000000  0.0000000  1.0000000 )
                  ( -1.0000000  0.0000000  0.0000000 )
                  (  0.0000000 -1.0000000  0.0000000 )


      isym = 23     120 deg rotation - cart. axis [1,-1,-1]      

 cryst.   s(23) = (     0         -1          0      )
                  (     0          0          1      )
                  (    -1          0          0      )

 cart.    s(23) = (  0.0000000  0.0000000 -1.0000000 )
                  ( -1.0000000  0.0000000  0.0000000 )
                  (  0.0000000  1.0000000  0.0000000 )


      isym = 24     120 deg rotation - cart. axis [-1,-1,1]      

 cryst.   s(24) = (     0          1          0      )
                  (     0          0         -1      )
                  (    -1          0          0      )

 cart.    s(24) = (  0.0000000  0.0000000 -1.0000000 )
                  (  1.0000000  0.0000000  0.0000000 )
                  (  0.0000000 -1.0000000  0.0000000 )


      isym = 25     inversion                                    

 cryst.   s(25) = (    -1          0          0      )
                  (     0         -1          0      )
                  (     0          0         -1      )

 cart.    s(25) = ( -1.0000000  0.0000000  0.0000000 )
                  (  0.0000000 -1.0000000  0.0000000 )
                  (  0.0000000  0.0000000 -1.0000000 )


      isym = 26     inv. 180 deg rotation - cart. axis [0,0,1]   

 cryst.   s(26) = (     1          0          0      )
                  (     0          1          0      )
                  (     0          0         -1      )

 cart.    s(26) = (  1.0000000  0.0000000  0.0000000 )
                  (  0.0000000  1.0000000  0.0000000 )
                  (  0.0000000  0.0000000 -1.0000000 )


      isym = 27     inv. 180 deg rotation - cart. axis [0,1,0]   

 cryst.   s(27) = (     1          0          0      )
                  (     0         -1          0      )
                  (     0          0          1      )

 cart.    s(27) = (  1.0000000  0.0000000  0.0000000 )
                  (  0.0000000 -1.0000000  0.0000000 )
                  (  0.0000000  0.0000000  1.0000000 )


      isym = 28     inv. 180 deg rotation - cart. axis [1,0,0]   

 cryst.   s(28) = (    -1          0          0      )
                  (     0          1          0      )
                  (     0          0          1      )

 cart.    s(28) = ( -1.0000000  0.0000000  0.0000000 )
                  (  0.0000000  1.0000000  0.0000000 )
                  (  0.0000000  0.0000000  1.0000000 )


      isym = 29     inv. 180 deg rotation - cart. axis [1,1,0]   

 cryst.   s(29) = (     0         -1          0      )
                  (    -1          0          0      )
                  (     0          0          1      )

 cart.    s(29) = (  0.0000000 -1.0000000  0.0000000 )
                  ( -1.0000000  0.0000000  0.0000000 )
                  (  0.0000000  0.0000000  1.0000000 )


      isym = 30     inv. 180 deg rotation - cart. axis [1,-1,0]  

 cryst.   s(30) = (     0          1          0      )
                  (     1          0          0      )
                  (     0          0          1      )

 cart.    s(30) = (  0.0000000  1.0000000  0.0000000 )
                  (  1.0000000  0.0000000  0.0000000 )
                  (  0.0000000  0.0000000  1.0000000 )


      isym = 31     inv.  90 deg rotation - cart. axis [0,0,-1]  

 cryst.   s(31) = (     0          1          0      )
                  (    -1          0          0      )
                  (     0          0         -1      )

 cart.    s(31) = (  0.0000000 -1.0000000  0.0000000 )
                  (  1.0000000  0.0000000  0.0000000 )
                  (  0.0000000  0.0000000 -1.0000000 )


      isym = 32     inv.  90 deg rotation - cart. axis [0,0,1]   

 cryst.   s(32) = (     0         -1          0      )
                  (     1          0          0      )
                  (     0          0         -1      )

 cart.    s(32) = (  0.0000000  1.0000000  0.0000000 )
                  ( -1.0000000  0.0000000  0.0000000 )
                  (  0.0000000  0.0000000 -1.0000000 )


      isym = 33     inv. 180 deg rotation - cart. axis [1,0,1]   

 cryst.   s(33) = (     0          0         -1      )
                  (     0          1          0      )
                  (    -1          0          0      )

 cart.    s(33) = (  0.0000000  0.0000000 -1.0000000 )
                  (  0.0000000  1.0000000  0.0000000 )
                  ( -1.0000000  0.0000000  0.0000000 )


      isym = 34     inv. 180 deg rotation - cart. axis [-1,0,1]  

 cryst.   s(34) = (     0          0          1      )
                  (     0          1          0      )
                  (     1          0          0      )

 cart.    s(34) = (  0.0000000  0.0000000  1.0000000 )
                  (  0.0000000  1.0000000  0.0000000 )
                  (  1.0000000  0.0000000  0.0000000 )


      isym = 35     inv.  90 deg rotation - cart. axis [0,1,0]   

 cryst.   s(35) = (     0          0          1      )
                  (     0         -1          0      )
                  (    -1          0          0      )

 cart.    s(35) = (  0.0000000  0.0000000 -1.0000000 )
                  (  0.0000000 -1.0000000  0.0000000 )
                  (  1.0000000  0.0000000  0.0000000 )


      isym = 36     inv.  90 deg rotation - cart. axis [0,-1,0]  

 cryst.   s(36) = (     0          0         -1      )
                  (     0         -1          0      )
                  (     1          0          0      )

 cart.    s(36) = (  0.0000000  0.0000000  1.0000000 )
                  (  0.0000000 -1.0000000  0.0000000 )
                  ( -1.0000000  0.0000000  0.0000000 )


      isym = 37     inv. 180 deg rotation - cart. axis [0,1,1]   

 cryst.   s(37) = (     1          0          0      )
                  (     0          0         -1      )
                  (     0         -1          0      )

 cart.    s(37) = (  1.0000000  0.0000000  0.0000000 )
                  (  0.0000000  0.0000000 -1.0000000 )
                  (  0.0000000 -1.0000000  0.0000000 )


      isym = 38     inv. 180 deg rotation - cart. axis [0,1,-1]  

 cryst.   s(38) = (     1          0          0      )
                  (     0          0          1      )
                  (     0          1          0      )

 cart.    s(38) = (  1.0000000  0.0000000  0.0000000 )
                  (  0.0000000  0.0000000  1.0000000 )
                  (  0.0000000  1.0000000  0.0000000 )


      isym = 39     inv.  90 deg rotation - cart. axis [-1,0,0]  

 cryst.   s(39) = (    -1          0          0      )
                  (     0          0          1      )
                  (     0         -1          0      )

 cart.    s(39) = ( -1.0000000  0.0000000  0.0000000 )
                  (  0.0000000  0.0000000 -1.0000000 )
                  (  0.0000000  1.0000000  0.0000000 )


      isym = 40     inv.  90 deg rotation - cart. axis [1,0,0]   

 cryst.   s(40) = (    -1          0          0      )
                  (     0          0         -1      )
                  (     0          1          0      )

 cart.    s(40) = ( -1.0000000  0.0000000  0.0000000 )
                  (  0.0000000  0.0000000  1.0000000 )
                  (  0.0000000 -1.0000000  0.0000000 )


      isym = 41     inv. 120 deg rotation - cart. axis [-1,-1,-1]

 cryst.   s(41) = (     0          0         -1      )
                  (    -1          0          0      )
                  (     0         -1          0      )

 cart.    s(41) = (  0.0000000 -1.0000000  0.0000000 )
                  (  0.0000000  0.0000000 -1.0000000 )
                  ( -1.0000000  0.0000000  0.0000000 )


      isym = 42     inv. 120 deg rotation - cart. axis [-1,1,1]  

 cryst.   s(42) = (     0          0          1      )
                  (     1          0          0      )
                  (     0         -1          0      )

 cart.    s(42) = (  0.0000000  1.0000000  0.0000000 )
                  (  0.0000000  0.0000000 -1.0000000 )
                  (  1.0000000  0.0000000  0.0000000 )


      isym = 43     inv. 120 deg rotation - cart. axis [1,1,-1]  

 cryst.   s(43) = (     0          0          1      )
                  (    -1          0          0      )
                  (     0          1          0      )

 cart.    s(43) = (  0.0000000 -1.0000000  0.0000000 )
                  (  0.0000000  0.0000000  1.0000000 )
                  (  1.0000000  0.0000000  0.0000000 )


      isym = 44     inv. 120 deg rotation - cart. axis [1,-1,1]  

 cryst.   s(44) = (     0          0         -1      )
                  (     1          0          0      )
                  (     0          1          0      )

 cart.    s(44) = (  0.0000000  1.0000000  0.0000000 )
                  (  0.0000000  0.0000000  1.0000000 )
                  ( -1.0000000  0.0000000  0.0000000 )


      isym = 45     inv. 120 deg rotation - cart. axis [1,1,1]   

 cryst.   s(45) = (     0         -1          0      )
                  (     0          0         -1      )
                  (    -1          0          0      )

 cart.    s(45) = (  0.0000000  0.0000000 -1.0000000 )
                  ( -1.0000000  0.0000000  0.0000000 )
                  (  0.0000000 -1.0000000  0.0000000 )


      isym = 46     inv. 120 deg rotation - cart. axis [-1,1,-1] 

 cryst.   s(46) = (     0          1          0      )
                  (     0          0          1      )
                  (    -1          0          0      )

 cart.    s(46) = (  0.0000000  0.0000000 -1.0000000 )
                  (  1.0000000  0.0000000  0.0000000 )
                  (  0.0000000  1.0000000  0.0000000 )


      isym = 47     inv. 120 deg rotation - cart. axis [1,-1,-1] 

 cryst.   s(47) = (     0          1          0      )
                  (     0          0         -1      )
                  (     1          0          0      )

 cart.    s(47) = (  0.0000000  0.0000000  1.0000000 )
                  (  1.0000000  0.0000000  0.0000000 )
                  (  0.0000000 -1.0000000  0.0000000 )


      isym = 48     inv. 120 deg rotation - cart. axis [-1,-1,1] 

 cryst.   s(48) = (     0         -1          0      )
                  (     0          0          1      )
                  (     1          0          0      )

 cart.    s(48) = (  0.0000000  0.0000000  1.0000000 )
                  ( -1.0000000  0.0000000  0.0000000 )
                  (  0.0000000  1.0000000  0.0000000 )


   Cartesian axes

     site n.     atom                  positions (alat units)
         1        Fe     tau(   1) = (   0.0000000   0.0000000   0.0000000  )
         2        Fe     tau(   2) = (   0.1666667   0.1666667   0.1666667  )
         3        Fe     tau(   3) = (   0.0000000   0.0000000   0.3333333  )
         4        Fe     tau(   4) = (   0.1666667   0.1666667   0.5000000  )
         5        Fe     tau(   5) = (   0.0000000   0.0000000   0.6666667  )
         6        Fe     tau(   6) = (   0.1666667   0.1666667   0.8333333  )
         7        Fe     tau(   7) = (   0.0000000   0.3333333   0.0000000  )
         8        Fe     tau(   8) = (   0.1666667   0.5000000   0.1666667  )
         9        Fe     tau(   9) = (   0.0000000   0.3333333   0.3333333  )
        10        Fe     tau(  10) = (   0.1666667   0.5000000   0.5000000  )
        11        Fe     tau(  11) = (   0.0000000   0.3333333   0.6666667  )
        12        Fe     tau(  12) = (   0.1666667   0.5000000   0.8333333  )
        13        Fe     tau(  13) = (   0.0000000   0.6666667   0.0000000  )
        14        Fe     tau(  14) = (   0.1666667   0.8333333   0.1666667  )
        15        Fe     tau(  15) = (   0.0000000   0.6666667   0.3333333  )
        16        Fe     tau(  16) = (   0.1666667   0.8333333   0.5000000  )
        17        Fe     tau(  17) = (   0.0000000   0.6666667   0.6666667  )
        18        Fe     tau(  18) = (   0.1666667   0.8333333   0.8333333  )
        19        Fe     tau(  19) = (   0.3333333   0.0000000   0.0000000  )
        20        Fe     tau(  20) = (   0.5000000   0.1666667   0.1666667  )
        21        Fe     tau(  21) = (   0.3333333   0.0000000   0.3333333  )
        22        Fe     tau(  22) = (   0.5000000   0.1666667   0.5000000  )
        23        Fe     tau(  23) = (   0.3333333   0.0000000   0.6666667  )
        24        Fe     tau(  24) = (   0.5000000   0.1666667   0.8333333  )
        25        Fe     tau(  25) = (   0.3333333   0.3333333   0.0000000  )
        26        Fe     tau(  26) = (   0.5000000   0.5000000   0.1666667  )
        27        Fe     tau(  27) = (   0.3333333   0.3333333   0.3333333  )
        28        Fe     tau(  28) = (   0.5000000   0.5000000   0.5000000  )
        29        Fe     tau(  29) = (   0.3333333   0.3333333   0.6666667  )
        30        Fe     tau(  30) = (   0.5000000   0.5000000   0.8333333  )
        31        Fe     tau(  31) = (   0.3333333   0.6666667   0.0000000  )
        32        Fe     tau(  32) = (   0.5000000   0.8333333   0.1666667  )
        33        Fe     tau(  33) = (   0.3333333   0.6666667   0.3333333  )
        34        Fe     tau(  34) = (   0.5000000   0.8333333   0.5000000  )
        35        Fe     tau(  35) = (   0.3333333   0.6666667   0.6666667  )
        36        Fe     tau(  36) = (   0.5000000   0.8333333   0.8333333  )
        37        Fe     tau(  37) = (   0.6666667   0.0000000   0.0000000  )
        38        Fe     tau(  38) = (   0.8333333   0.1666667   0.1666667  )
        39        Fe     tau(  39) = (   0.6666667   0.0000000   0.3333333  )
        40        Fe     tau(  40) = (   0.8333333   0.1666667   0.5000000  )
        41        Fe     tau(  41) = (   0.6666667   0.0000000   0.6666667  )
        42        Fe     tau(  42) = (   0.8333333   0.1666667   0.8333333  )
        43        Fe     tau(  43) = (   0.6666667   0.3333333   0.0000000  )
        44        Fe     tau(  44) = (   0.8333333   0.5000000   0.1666667  )
        45        Fe     tau(  45) = (   0.6666667   0.3333333   0.3333333  )
        46        Fe     tau(  46) = (   0.8333333   0.5000000   0.5000000  )
        47        Fe     tau(  47) = (   0.6666667   0.3333333   0.6666667  )
        48        Fe     tau(  48) = (   0.8333333   0.5000000   0.8333333  )
        49        Fe     tau(  49) = (   0.6666667   0.6666667   0.0000000  )
        50        Fe     tau(  50) = (   0.8333333   0.8333333   0.1666667  )
        51        Fe     tau(  51) = (   0.6666667   0.6666667   0.3333333  )
        52        Fe     tau(  52) = (   0.8333333   0.8333333   0.5000000  )
        53        Fe     tau(  53) = (   0.6666667   0.6666667   0.6666667  )
        54        Fe     tau(  54) = (   0.8333333   0.8333333   0.8333333  )

   Crystallographic axes

     site n.     atom                  positions (cryst. coord.)
         1        Fe     tau(   1) = (  0.0000000  0.0000000  0.0000000  )
         2        Fe     tau(   2) = (  0.1666667  0.1666667  0.1666667  )
         3        Fe     tau(   3) = (  0.0000000  0.0000000  0.3333333  )
         4        Fe     tau(   4) = (  0.1666667  0.1666667  0.5000000  )
         5        Fe     tau(   5) = (  0.0000000  0.0000000  0.6666667  )
         6        Fe     tau(   6) = (  0.1666667  0.1666667  0.8333333  )
         7        Fe     tau(   7) = (  0.0000000  0.3333333  0.0000000  )
         8        Fe     tau(   8) = (  0.1666667  0.5000000  0.1666667  )
         9        Fe     tau(   9) = (  0.0000000  0.3333333  0.3333333  )
        10        Fe     tau(  10) = (  0.1666667  0.5000000  0.5000000  )
        11        Fe     tau(  11) = (  0.0000000  0.3333333  0.6666667  )
        12        Fe     tau(  12) = (  0.1666667  0.5000000  0.8333333  )
        13        Fe     tau(  13) = (  0.0000000  0.6666667  0.0000000  )
        14        Fe     tau(  14) = (  0.1666667  0.8333333  0.1666667  )
        15        Fe     tau(  15) = (  0.0000000  0.6666667  0.3333333  )
        16        Fe     tau(  16) = (  0.1666667  0.8333333  0.5000000  )
        17        Fe     tau(  17) = (  0.0000000  0.6666667  0.6666667  )
        18        Fe     tau(  18) = (  0.1666667  0.8333333  0.8333333  )
        19        Fe     tau(  19) = (  0.3333333  0.0000000  0.0000000  )
        20        Fe     tau(  20) = (  0.5000000  0.1666667  0.1666667  )
        21        Fe     tau(  21) = (  0.3333333  0.0000000  0.3333333  )
        22        Fe     tau(  22) = (  0.5000000  0.1666667  0.5000000  )
        23        Fe     tau(  23) = (  0.3333333  0.0000000  0.6666667  )
        24        Fe     tau(  24) = (  0.5000000  0.1666667  0.8333333  )
        25        Fe     tau(  25) = (  0.3333333  0.3333333  0.0000000  )
        26        Fe     tau(  26) = (  0.5000000  0.5000000  0.1666667  )
        27        Fe     tau(  27) = (  0.3333333  0.3333333  0.3333333  )
        28        Fe     tau(  28) = (  0.5000000  0.5000000  0.5000000  )
        29        Fe     tau(  29) = (  0.3333333  0.3333333  0.6666667  )
        30        Fe     tau(  30) = (  0.5000000  0.5000000  0.8333333  )
        31        Fe     tau(  31) = (  0.3333333  0.6666667  0.0000000  )
        32        Fe     tau(  32) = (  0.5000000  0.8333333  0.1666667  )
        33        Fe     tau(  33) = (  0.3333333  0.6666667  0.3333333  )
        34        Fe     tau(  34) = (  0.5000000  0.8333333  0.5000000  )
        35        Fe     tau(  35) = (  0.3333333  0.6666667  0.6666667  )
        36        Fe     tau(  36) = (  0.5000000  0.8333333  0.8333333  )
        37        Fe     tau(  37) = (  0.6666667  0.0000000  0.0000000  )
        38        Fe     tau(  38) = (  0.8333333  0.1666667  0.1666667  )
        39        Fe     tau(  39) = (  0.6666667  0.0000000  0.3333333  )
        40        Fe     tau(  40) = (  0.8333333  0.1666667  0.5000000  )
        41        Fe     tau(  41) = (  0.6666667  0.0000000  0.6666667  )
        42        Fe     tau(  42) = (  0.8333333  0.1666667  0.8333333  )
        43        Fe     tau(  43) = (  0.6666667  0.3333333  0.0000000  )
        44        Fe     tau(  44) = (  0.8333333  0.5000000  0.1666667  )
        45        Fe     tau(  45) = (  0.6666667  0.3333333  0.3333333  )
        46        Fe     tau(  46) = (  0.8333333  0.5000000  0.5000000  )
        47        Fe     tau(  47) = (  0.6666667  0.3333333  0.6666667  )
        48        Fe     tau(  48) = (  0.8333333  0.5000000  0.8333333  )
        49        Fe     tau(  49) = (  0.6666667  0.6666667  0.0000000  )
        50        Fe     tau(  50) = (  0.8333333  0.8333333  0.1666667  )
        51        Fe     tau(  51) = (  0.6666667  0.6666667  0.3333333  )
        52        Fe     tau(  52) = (  0.8333333  0.8333333  0.5000000  )
        53        Fe     tau(  53) = (  0.6666667  0.6666667  0.6666667  )
        54        Fe     tau(  54) = (  0.8333333  0.8333333  0.8333333  )

     number of k points=    35  Marzari-Vanderbilt smearing, width (Ry)=  0.0100
                       cart. coord. in units 2pi/alat
        k(    1) = (   0.0000000   0.0000000   0.0000000), wk =   0.0019531
        k(    2) = (   0.0000000   0.0000000   0.1250000), wk =   0.0117188
        k(    3) = (   0.0000000   0.0000000   0.2500000), wk =   0.0117188
        k(    4) = (   0.0000000   0.0000000   0.3750000), wk =   0.0117188
        k(    5) = (   0.0000000   0.0000000  -0.5000000), wk =   0.0058594
        k(    6) = (   0.0000000   0.1250000   0.1250000), wk =   0.0234375
        k(    7) = (   0.0000000   0.1250000   0.2500000), wk =   0.0468750
        k(    8) = (   0.0000000   0.1250000   0.3750000), wk =   0.0468750
        k(    9) = (   0.0000000   0.1250000  -0.5000000), wk =   0.0234375
        k(   10) = (   0.0000000   0.2500000   0.2500000), wk =   0.0234375
        k(   11) = (   0.0000000   0.2500000   0.3750000), wk =   0.0468750
        k(   12) = (   0.0000000   0.2500000  -0.5000000), wk =   0.0234375
        k(   13) = (   0.0000000   0.3750000   0.3750000), wk =   0.0234375
        k(   14) = (   0.0000000   0.3750000  -0.5000000), wk =   0.0234375
        k(   15) = (   0.0000000  -0.5000000  -0.5000000), wk =   0.0058594
        k(   16) = (   0.1250000   0.1250000   0.1250000), wk =   0.0156250
        k(   17) = (   0.1250000   0.1250000   0.2500000), wk =   0.0468750
        k(   18) = (   0.1250000   0.1250000   0.3750000), wk =   0.0468750
        k(   19) = (   0.1250000   0.1250000  -0.5000000), wk =   0.0234375
        k(   20) = (   0.1250000   0.2500000   0.2500000), wk =   0.0468750
        k(   21) = (   0.1250000   0.2500000   0.3750000), wk =   0.0937500
        k(   22) = (   0.1250000   0.2500000  -0.5000000), wk =   0.0468750
        k(   23) = (   0.1250000   0.3750000   0.3750000), wk =   0.0468750
        k(   24) = (   0.1250000   0.3750000  -0.5000000), wk =   0.0468750
        k(   25) = (   0.1250000  -0.5000000  -0.5000000), wk =   0.0117188
        k(   26) = (   0.2500000   0.2500000   0.2500000), wk =   0.0156250
        k(   27) = (   0.2500000   0.2500000   0.3750000), wk =   0.0468750
        k(   28) = (   0.2500000   0.2500000  -0.5000000), wk =   0.0234375
        k(   29) = (   0.2500000   0.3750000   0.3750000), wk =   0.0468750
        k(   30) = (   0.2500000   0.3750000  -0.5000000), wk =   0.0468750
        k(   31) = (   0.2500000  -0.5000000  -0.5000000), wk =   0.0117188
        k(   32) = (   0.3750000   0.3750000   0.3750000), wk =   0.0156250
        k(   33) = (   0.3750000   0.3750000  -0.5000000), wk =   0.0234375
        k(   34) = (   0.3750000  -0.5000000  -0.5000000), wk =   0.0117188
        k(   35) = (  -0.5000000  -0.5000000  -0.5000000), wk =   0.0019531

                       cryst. coord.
        k(    1) = (   0.0000000   0.0000000   0.0000000), wk =   0.0019531
        k(    2) = (   0.0000000   0.0000000   0.1250000), wk =   0.0117188
        k(    3) = (   0.0000000   0.0000000   0.2500000), wk =   0.0117188
        k(    4) = (   0.0000000   0.0000000   0.3750000), wk =   0.0117188
        k(    5) = (   0.0000000   0.0000000  -0.5000000), wk =   0.0058594
        k(    6) = (   0.0000000   0.1250000   0.1250000), wk =   0.0234375
        k(    7) = (   0.0000000   0.1250000   0.2500000), wk =   0.0468750
        k(    8) = (   0.0000000   0.1250000   0.3750000), wk =   0.0468750
        k(    9) = (   0.0000000   0.1250000  -0.5000000), wk =   0.0234375
        k(   10) = (   0.0000000   0.2500000   0.2500000), wk =   0.0234375
        k(   11) = (   0.0000000   0.2500000   0.3750000), wk =   0.0468750
        k(   12) = (   0.0000000   0.2500000  -0.5000000), wk =   0.0234375
        k(   13) = (   0.0000000   0.3750000   0.3750000), wk =   0.0234375
        k(   14) = (   0.0000000   0.3750000  -0.5000000), wk =   0.0234375
        k(   15) = (   0.0000000  -0.5000000  -0.5000000), wk =   0.0058594
        k(   16) = (   0.1250000   0.1250000   0.1250000), wk =   0.0156250
        k(   17) = (   0.1250000   0.1250000   0.2500000), wk =   0.0468750
        k(   18) = (   0.1250000   0.1250000   0.3750000), wk =   0.0468750
        k(   19) = (   0.1250000   0.1250000  -0.5000000), wk =   0.0234375
        k(   20) = (   0.1250000   0.2500000   0.2500000), wk =   0.0468750
        k(   21) = (   0.1250000   0.2500000   0.3750000), wk =   0.0937500
        k(   22) = (   0.1250000   0.2500000  -0.5000000), wk =   0.0468750
        k(   23) = (   0.1250000   0.3750000   0.3750000), wk =   0.0468750
        k(   24) = (   0.1250000   0.3750000  -0.5000000), wk =   0.0468750
        k(   25) = (   0.1250000  -0.5000000  -0.5000000), wk =   0.0117188
        k(   26) = (   0.2500000   0.2500000   0.2500000), wk =   0.0156250
        k(   27) = (   0.2500000   0.2500000   0.3750000), wk =   0.0468750
        k(   28) = (   0.2500000   0.2500000  -0.5000000), wk =   0.0234375
        k(   29) = (   0.2500000   0.3750000   0.3750000), wk =   0.0468750
        k(   30) = (   0.2500000   0.3750000  -0.5000000), wk =   0.0468750
        k(   31) = (   0.2500000  -0.5000000  -0.5000000), wk =   0.0117188
        k(   32) = (   0.3750000   0.3750000   0.3750000), wk =   0.0156250
        k(   33) = (   0.3750000   0.3750000  -0.5000000), wk =   0.0234375
        k(   34) = (   0.3750000  -0.5000000  -0.5000000), wk =   0.0117188
        k(   35) = (  -0.5000000  -0.5000000  -0.5000000), wk =   0.0019531

     Dense  grid:  2576031 G-vectors     FFT dimensions: ( 180, 180, 180)

     Smooth grid:   495639 G-vectors     FFT dimensions: ( 100, 100, 100)

     Dynamical RAM for                 wfc:      30.61 MB

     Dynamical RAM for     wfc (w. buffer):     306.12 MB

     Dynamical RAM for           str. fact:       2.46 MB

     Dynamical RAM for           local pot:       0.00 MB

     Dynamical RAM for          nlocal pot:      57.44 MB

     Dynamical RAM for                qrad:       2.64 MB

     Dynamical RAM for          rho,v,vnew:      32.54 MB

     Dynamical RAM for               rhoin:      10.85 MB

     Dynamical RAM for            rho*nmix:      78.61 MB

     Dynamical RAM for           G-vectors:       9.45 MB

     Dynamical RAM for          h,s,v(r/c):       3.07 MB

     Dynamical RAM for          <psi|beta>:       7.68 MB

     Dynamical RAM for                 psi:      61.22 MB

     Dynamical RAM for                hpsi:      61.22 MB

     Dynamical RAM for                spsi:      61.22 MB

     Dynamical RAM for      wfcinit/wfcrot:      70.50 MB

     Dynamical RAM for           addusdens:      78.31 MB

     Dynamical RAM for          addusforce:     109.13 MB

     Dynamical RAM for         addusstress:      64.33 MB

     Estimated static dynamical RAM per process >     444.20 MB

     Estimated max dynamical RAM per process >     717.25 MB

     Estimated total dynamical RAM >      81.06 GB
     Generating pointlists ...
     new r_m :   0.1191 (alat units)  1.9362 (a.u.) for type    1

     Initial potential from superposition of free atoms

     starting charge     863.9764, renormalised to     864.0000
     Starting wfcs are  540 randomized atomic wfcs
     Checking if some PAW data can be deallocated... 

     total cpu time spent up to now is       50.2 secs

     per-process dynamical memory:   639.0 Mb

     Self-consistent Calculation

     iteration #  1     ecut=    90.00 Ry     beta= 0.20
     Davidson diagonalization with overlap

---- Real-time Memory Report at c_bands before calling an iterative solver
          1232 MiB given to the printing process from OS
           636 MiB allocation reported by mallinfo(arena+hblkhd)
        378143 MiB available memory on the node where the printing process lives
------------------
     ethr =  1.00E-02,  avg # of iterations =  3.2

     total cpu time spent up to now is      209.2 secs

     total energy              =  -17771.85766955 Ry
     estimated scf accuracy    <      15.00787283 Ry

     total magnetization       =   168.48 Bohr mag/cell
     absolute magnetization    =   170.87 Bohr mag/cell

     iteration #  2     ecut=    90.00 Ry     beta= 0.20
     Davidson diagonalization with overlap

---- Real-time Memory Report at c_bands before calling an iterative solver
          1401 MiB given to the printing process from OS
           675 MiB allocation reported by mallinfo(arena+hblkhd)
        375325 MiB available memory on the node where the printing process lives
------------------
     ethr =  1.74E-03,  avg # of iterations =  3.8

     negative rho (up, down):  0.000E+00 1.196E-02

     total cpu time spent up to now is      347.6 secs

     total energy              =  -17778.75067274 Ry
     estimated scf accuracy    <      10.24491085 Ry

     total magnetization       =   164.47 Bohr mag/cell
     absolute magnetization    =   168.39 Bohr mag/cell

     iteration #  3     ecut=    90.00 Ry     beta= 0.20
     Davidson diagonalization with overlap

---- Real-time Memory Report at c_bands before calling an iterative solver
          1418 MiB given to the printing process from OS
           678 MiB allocation reported by mallinfo(arena+hblkhd)
        375282 MiB available memory on the node where the printing process lives
------------------
     ethr =  1.19E-03,  avg # of iterations =  2.3

     negative rho (up, down):  0.000E+00 2.050E-02

     total cpu time spent up to now is      486.5 secs

     total energy              =  -17779.36072778 Ry
     estimated scf accuracy    <      19.06554390 Ry

     total magnetization       =   143.21 Bohr mag/cell
     absolute magnetization    =   151.02 Bohr mag/cell

     iteration #  4     ecut=    90.00 Ry     beta= 0.20
     Davidson diagonalization with overlap

---- Real-time Memory Report at c_bands before calling an iterative solver
          1421 MiB given to the printing process from OS
           681 MiB allocation reported by mallinfo(arena+hblkhd)
        375237 MiB available memory on the node where the printing process lives
------------------
     ethr =  1.19E-03,  avg # of iterations =  1.7

     negative rho (up, down):  0.000E+00 2.263E-02

     total cpu time spent up to now is      614.2 secs

     total energy              =  -17780.31186365 Ry
     estimated scf accuracy    <       5.09977136 Ry

     total magnetization       =   138.80 Bohr mag/cell
     absolute magnetization    =   147.38 Bohr mag/cell

     iteration #  5     ecut=    90.00 Ry     beta= 0.20
     Davidson diagonalization with overlap

---- Real-time Memory Report at c_bands before calling an iterative solver
          1423 MiB given to the printing process from OS
           683 MiB allocation reported by mallinfo(arena+hblkhd)
        375187 MiB available memory on the node where the printing process lives
------------------
     ethr =  5.90E-04,  avg # of iterations =  1.7

     negative rho (up, down):  0.000E+00 2.183E-02

     total cpu time spent up to now is      742.8 secs

     total energy              =  -17780.46938749 Ry
     estimated scf accuracy    <       0.79072996 Ry

     total magnetization       =   136.35 Bohr mag/cell
     absolute magnetization    =   144.99 Bohr mag/cell

     iteration #  6     ecut=    90.00 Ry     beta= 0.20
     Davidson diagonalization with overlap

---- Real-time Memory Report at c_bands before calling an iterative solver
          1425 MiB given to the printing process from OS
           685 MiB allocation reported by mallinfo(arena+hblkhd)
        375145 MiB available memory on the node where the printing process lives
------------------
     ethr =  9.15E-05,  avg # of iterations =  4.1

     negative rho (up, down):  0.000E+00 1.638E-02

     total cpu time spent up to now is      882.1 secs

     total energy              =  -17780.39067042 Ry
     estimated scf accuracy    <       0.56232798 Ry

     total magnetization       =   135.82 Bohr mag/cell
     absolute magnetization    =   144.26 Bohr mag/cell

     iteration #  7     ecut=    90.00 Ry     beta= 0.20
     Davidson diagonalization with overlap

---- Real-time Memory Report at c_bands before calling an iterative solver
          1428 MiB given to the printing process from OS
           687 MiB allocation reported by mallinfo(arena+hblkhd)
        375114 MiB available memory on the node where the printing process lives
------------------
     ethr =  6.51E-05,  avg # of iterations =  3.3

     negative rho (up, down):  0.000E+00 1.267E-02

     total cpu time spent up to now is     1026.1 secs

     total energy              =  -17780.43250615 Ry
     estimated scf accuracy    <       0.32067630 Ry

     total magnetization       =   130.65 Bohr mag/cell
     absolute magnetization    =   139.29 Bohr mag/cell

     iteration #  8     ecut=    90.00 Ry     beta= 0.20
     Davidson diagonalization with overlap

---- Real-time Memory Report at c_bands before calling an iterative solver
          1430 MiB given to the printing process from OS
           689 MiB allocation reported by mallinfo(arena+hblkhd)
        375057 MiB available memory on the node where the printing process lives
------------------
     ethr =  3.71E-05,  avg # of iterations =  4.5

     negative rho (up, down):  0.000E+00 1.051E-02

     total cpu time spent up to now is     1187.7 secs

     total energy              =  -17780.49768185 Ry
     estimated scf accuracy    <       0.15445960 Ry

     total magnetization       =   125.66 Bohr mag/cell
     absolute magnetization    =   134.57 Bohr mag/cell

     iteration #  9     ecut=    90.00 Ry     beta= 0.20
     Davidson diagonalization with overlap

---- Real-time Memory Report at c_bands before calling an iterative solver
          1432 MiB given to the printing process from OS
           691 MiB allocation reported by mallinfo(arena+hblkhd)
        375014 MiB available memory on the node where the printing process lives
------------------
     ethr =  1.79E-05,  avg # of iterations =  2.5

     negative rho (up, down):  0.000E+00 7.773E-03

     total cpu time spent up to now is     1321.4 secs

     total energy              =  -17780.49746681 Ry
     estimated scf accuracy    <       0.19224574 Ry

     total magnetization       =   122.57 Bohr mag/cell
     absolute magnetization    =   131.59 Bohr mag/cell

     iteration # 10     ecut=    90.00 Ry     beta= 0.20
     Davidson diagonalization with overlap

---- Real-time Memory Report at c_bands before calling an iterative solver
          1434 MiB given to the printing process from OS
           694 MiB allocation reported by mallinfo(arena+hblkhd)
        374951 MiB available memory on the node where the printing process lives
------------------
     ethr =  1.79E-05,  avg # of iterations =  1.7

     negative rho (up, down):  0.000E+00 3.650E-03

     total cpu time spent up to now is     1452.9 secs

     total energy              =  -17780.51523221 Ry
     estimated scf accuracy    <       0.09995407 Ry

     total magnetization       =   120.87 Bohr mag/cell
     absolute magnetization    =   129.84 Bohr mag/cell

     iteration # 11     ecut=    90.00 Ry     beta= 0.20
     Davidson diagonalization with overlap

---- Real-time Memory Report at c_bands before calling an iterative solver
          1436 MiB given to the printing process from OS
           694 MiB allocation reported by mallinfo(arena+hblkhd)
        374958 MiB available memory on the node where the printing process lives
------------------
     ethr =  1.16E-05,  avg # of iterations =  3.9

     negative rho (up, down):  0.000E+00 3.501E-03

     total cpu time spent up to now is     1606.1 secs

     total energy              =  -17780.53422535 Ry
     estimated scf accuracy    <       0.02533345 Ry

     total magnetization       =   120.95 Bohr mag/cell
     absolute magnetization    =   128.84 Bohr mag/cell

     iteration # 12     ecut=    90.00 Ry     beta= 0.20
     Davidson diagonalization with overlap

---- Real-time Memory Report at c_bands before calling an iterative solver
          1436 MiB given to the printing process from OS
           694 MiB allocation reported by mallinfo(arena+hblkhd)
        374903 MiB available memory on the node where the printing process lives
------------------
     ethr =  2.93E-06,  avg # of iterations =  5.0

     negative rho (up, down):  0.000E+00 3.183E-03

     total cpu time spent up to now is     1766.9 secs

     total energy              =  -17780.53943319 Ry
     estimated scf accuracy    <       0.02853370 Ry

     total magnetization       =   120.44 Bohr mag/cell
     absolute magnetization    =   128.27 Bohr mag/cell

     iteration # 13     ecut=    90.00 Ry     beta= 0.20
     Davidson diagonalization with overlap

---- Real-time Memory Report at c_bands before calling an iterative solver
          1436 MiB given to the printing process from OS
           694 MiB allocation reported by mallinfo(arena+hblkhd)
        374891 MiB available memory on the node where the printing process lives
------------------
     ethr =  2.93E-06,  avg # of iterations =  2.5

     negative rho (up, down):  0.000E+00 3.037E-03

     total cpu time spent up to now is     1908.3 secs

     total energy              =  -17780.54404992 Ry
     estimated scf accuracy    <       0.00331058 Ry

     total magnetization       =   120.61 Bohr mag/cell
     absolute magnetization    =   128.22 Bohr mag/cell

     iteration # 14     ecut=    90.00 Ry     beta= 0.20
     Davidson diagonalization with overlap

---- Real-time Memory Report at c_bands before calling an iterative solver
          1436 MiB given to the printing process from OS
           694 MiB allocation reported by mallinfo(arena+hblkhd)
        374894 MiB available memory on the node where the printing process lives
------------------
     ethr =  3.83E-07,  avg # of iterations =  4.9

     negative rho (up, down):  0.000E+00 3.004E-03

     total cpu time spent up to now is     2070.8 secs

     total energy              =  -17780.54469472 Ry
     estimated scf accuracy    <       0.00673013 Ry

     total magnetization       =   120.48 Bohr mag/cell
     absolute magnetization    =   127.93 Bohr mag/cell

     iteration # 15     ecut=    90.00 Ry     beta= 0.20
     Davidson diagonalization with overlap

---- Real-time Memory Report at c_bands before calling an iterative solver
          1436 MiB given to the printing process from OS
           694 MiB allocation reported by mallinfo(arena+hblkhd)
        374913 MiB available memory on the node where the printing process lives
------------------
     ethr =  3.83E-07,  avg # of iterations =  1.9

     negative rho (up, down):  0.000E+00 2.876E-03

     total cpu time spent up to now is     2201.8 secs

     total energy              =  -17780.54595384 Ry
     estimated scf accuracy    <       0.01234839 Ry

     total magnetization       =   120.45 Bohr mag/cell
     absolute magnetization    =   127.88 Bohr mag/cell

     iteration # 16     ecut=    90.00 Ry     beta= 0.20
     Davidson diagonalization with overlap

---- Real-time Memory Report at c_bands before calling an iterative solver
          1436 MiB given to the printing process from OS
           694 MiB allocation reported by mallinfo(arena+hblkhd)
        374896 MiB available memory on the node where the printing process lives
------------------
     ethr =  3.83E-07,  avg # of iterations =  1.9

     negative rho (up, down):  0.000E+00 2.857E-03

     total cpu time spent up to now is     2334.4 secs

     total energy              =  -17780.54628599 Ry
     estimated scf accuracy    <       0.00368163 Ry

     total magnetization       =   120.27 Bohr mag/cell
     absolute magnetization    =   127.61 Bohr mag/cell

     iteration # 17     ecut=    90.00 Ry     beta= 0.20
     Davidson diagonalization with overlap

---- Real-time Memory Report at c_bands before calling an iterative solver
          1436 MiB given to the printing process from OS
           694 MiB allocation reported by mallinfo(arena+hblkhd)
        374875 MiB available memory on the node where the printing process lives
------------------
     ethr =  3.83E-07,  avg # of iterations =  1.4

     negative rho (up, down):  0.000E+00 2.672E-03

     total cpu time spent up to now is     2464.5 secs

     total energy              =  -17780.54712434 Ry
     estimated scf accuracy    <       0.00453599 Ry

     total magnetization       =   120.41 Bohr mag/cell
     absolute magnetization    =   127.70 Bohr mag/cell

     iteration # 18     ecut=    90.00 Ry     beta= 0.20
     Davidson diagonalization with overlap

---- Real-time Memory Report at c_bands before calling an iterative solver
          1436 MiB given to the printing process from OS
           694 MiB allocation reported by mallinfo(arena+hblkhd)
        374890 MiB available memory on the node where the printing process lives
------------------
     ethr =  3.83E-07,  avg # of iterations =  3.8

     negative rho (up, down):  0.000E+00 2.641E-03

     total cpu time spent up to now is     2626.8 secs

     total energy              =  -17780.54840597 Ry
     estimated scf accuracy    <       0.00231933 Ry

     total magnetization       =   119.95 Bohr mag/cell
     absolute magnetization    =   126.94 Bohr mag/cell

     iteration # 19     ecut=    90.00 Ry     beta= 0.20
     Davidson diagonalization with overlap

---- Real-time Memory Report at c_bands before calling an iterative solver
          1436 MiB given to the printing process from OS
           694 MiB allocation reported by mallinfo(arena+hblkhd)
        374903 MiB available memory on the node where the printing process lives
------------------
     ethr =  2.68E-07,  avg # of iterations =  1.7

     negative rho (up, down):  0.000E+00 2.584E-03

     total cpu time spent up to now is     2755.8 secs

     total energy              =  -17780.54836244 Ry
     estimated scf accuracy    <       0.00129876 Ry

     total magnetization       =   119.90 Bohr mag/cell
     absolute magnetization    =   126.87 Bohr mag/cell

     iteration # 20     ecut=    90.00 Ry     beta= 0.20
     Davidson diagonalization with overlap

---- Real-time Memory Report at c_bands before calling an iterative solver
          1436 MiB given to the printing process from OS
           694 MiB allocation reported by mallinfo(arena+hblkhd)
        374913 MiB available memory on the node where the printing process lives
------------------
     ethr =  1.50E-07,  avg # of iterations =  2.4

     negative rho (up, down):  0.000E+00 2.581E-03

     total cpu time spent up to now is     2895.2 secs

     total energy              =  -17780.54837914 Ry
     estimated scf accuracy    <       0.00064044 Ry

     total magnetization       =   119.89 Bohr mag/cell
     absolute magnetization    =   126.83 Bohr mag/cell

     iteration # 21     ecut=    90.00 Ry     beta= 0.20
     Davidson diagonalization with overlap

---- Real-time Memory Report at c_bands before calling an iterative solver
          1436 MiB given to the printing process from OS
           694 MiB allocation reported by mallinfo(arena+hblkhd)
        374892 MiB available memory on the node where the printing process lives
------------------
     ethr =  7.41E-08,  avg # of iterations =  2.4

     negative rho (up, down):  0.000E+00 2.577E-03

     total cpu time spent up to now is     3029.7 secs

     total energy              =  -17780.54836901 Ry
     estimated scf accuracy    <       0.00027859 Ry

     total magnetization       =   119.89 Bohr mag/cell
     absolute magnetization    =   126.81 Bohr mag/cell

     iteration # 22     ecut=    90.00 Ry     beta= 0.20
     Davidson diagonalization with overlap

---- Real-time Memory Report at c_bands before calling an iterative solver
          1436 MiB given to the printing process from OS
           694 MiB allocation reported by mallinfo(arena+hblkhd)
        374891 MiB available memory on the node where the printing process lives
------------------
     ethr =  3.22E-08,  avg # of iterations =  3.9

     negative rho (up, down):  0.000E+00 2.580E-03

     total cpu time spent up to now is     3176.2 secs

     total energy              =  -17780.54839886 Ry
     estimated scf accuracy    <       0.00015240 Ry

     total magnetization       =   119.86 Bohr mag/cell
     absolute magnetization    =   126.76 Bohr mag/cell

     iteration # 23     ecut=    90.00 Ry     beta= 0.20
     Davidson diagonalization with overlap

---- Real-time Memory Report at c_bands before calling an iterative solver
          1436 MiB given to the printing process from OS
           694 MiB allocation reported by mallinfo(arena+hblkhd)
        396603 MiB available memory on the node where the printing process lives
------------------
     ethr =  1.76E-08,  avg # of iterations =  2.3

     negative rho (up, down):  0.000E+00 2.649E-03

     total cpu time spent up to now is     3312.0 secs

     total energy              =  -17780.54843044 Ry
     estimated scf accuracy    <       0.00010886 Ry

     total magnetization       =   119.82 Bohr mag/cell
     absolute magnetization    =   126.72 Bohr mag/cell

     iteration # 24     ecut=    90.00 Ry     beta= 0.20
     Davidson diagonalization with overlap

---- Real-time Memory Report at c_bands before calling an iterative solver
          1436 MiB given to the printing process from OS
           694 MiB allocation reported by mallinfo(arena+hblkhd)
        407355 MiB available memory on the node where the printing process lives
------------------
     ethr =  1.26E-08,  avg # of iterations =  1.5

     negative rho (up, down):  0.000E+00 2.650E-03

     total cpu time spent up to now is     3446.8 secs

     total energy              =  -17780.54843912 Ry
     estimated scf accuracy    <       0.00000756 Ry

     total magnetization       =   119.78 Bohr mag/cell
     absolute magnetization    =   126.68 Bohr mag/cell

     iteration # 25     ecut=    90.00 Ry     beta= 0.20
     Davidson diagonalization with overlap

---- Real-time Memory Report at c_bands before calling an iterative solver
          1436 MiB given to the printing process from OS
           694 MiB allocation reported by mallinfo(arena+hblkhd)
        407433 MiB available memory on the node where the printing process lives
------------------
     ethr =  8.75E-10,  avg # of iterations =  4.2

     negative rho (up, down):  0.000E+00 2.650E-03

     total cpu time spent up to now is     3588.9 secs

     total energy              =  -17780.54844096 Ry
     estimated scf accuracy    <       0.00000586 Ry

     total magnetization       =   119.78 Bohr mag/cell
     absolute magnetization    =   126.67 Bohr mag/cell

     iteration # 26     ecut=    90.00 Ry     beta= 0.20
     Davidson diagonalization with overlap

---- Real-time Memory Report at c_bands before calling an iterative solver
          1436 MiB given to the printing process from OS
           694 MiB allocation reported by mallinfo(arena+hblkhd)
        408037 MiB available memory on the node where the printing process lives
------------------
     ethr =  6.78E-10,  avg # of iterations =  2.1

     negative rho (up, down):  0.000E+00 2.652E-03

     total cpu time spent up to now is     3723.8 secs

     total energy              =  -17780.54844162 Ry
     estimated scf accuracy    <       0.00000502 Ry

     total magnetization       =   119.78 Bohr mag/cell
     absolute magnetization    =   126.66 Bohr mag/cell

     iteration # 27     ecut=    90.00 Ry     beta= 0.20
     Davidson diagonalization with overlap

---- Real-time Memory Report at c_bands before calling an iterative solver
          1436 MiB given to the printing process from OS
           694 MiB allocation reported by mallinfo(arena+hblkhd)
        408468 MiB available memory on the node where the printing process lives
------------------
     ethr =  5.81E-10,  avg # of iterations =  1.4

     negative rho (up, down):  0.000E+00 2.655E-03

     total cpu time spent up to now is     3851.8 secs

     total energy              =  -17780.54844350 Ry
     estimated scf accuracy    <       0.00000335 Ry

     total magnetization       =   119.78 Bohr mag/cell
     absolute magnetization    =   126.66 Bohr mag/cell

     iteration # 28     ecut=    90.00 Ry     beta= 0.20
     Davidson diagonalization with overlap

---- Real-time Memory Report at c_bands before calling an iterative solver
          1436 MiB given to the printing process from OS
           694 MiB allocation reported by mallinfo(arena+hblkhd)
        408506 MiB available memory on the node where the printing process lives
------------------
     ethr =  3.88E-10,  avg # of iterations =  3.7

     negative rho (up, down):  0.000E+00 2.655E-03

     total cpu time spent up to now is     4003.6 secs

     total energy              =  -17780.54844446 Ry
     estimated scf accuracy    <       0.00000236 Ry

     total magnetization       =   119.77 Bohr mag/cell
     absolute magnetization    =   126.64 Bohr mag/cell

     iteration # 29     ecut=    90.00 Ry     beta= 0.20
     Davidson diagonalization with overlap

---- Real-time Memory Report at c_bands before calling an iterative solver
          1436 MiB given to the printing process from OS
           694 MiB allocation reported by mallinfo(arena+hblkhd)
        408521 MiB available memory on the node where the printing process lives
------------------
     ethr =  2.73E-10,  avg # of iterations =  2.7

     negative rho (up, down):  0.000E+00 2.656E-03

     total cpu time spent up to now is     4140.7 secs

     total energy              =  -17780.54844467 Ry
     estimated scf accuracy    <       0.00000090 Ry

     total magnetization       =   119.77 Bohr mag/cell
     absolute magnetization    =   126.64 Bohr mag/cell

     iteration # 30     ecut=    90.00 Ry     beta= 0.20
     Davidson diagonalization with overlap

---- Real-time Memory Report at c_bands before calling an iterative solver
          1436 MiB given to the printing process from OS
           694 MiB allocation reported by mallinfo(arena+hblkhd)
        408503 MiB available memory on the node where the printing process lives
------------------
     ethr =  1.05E-10,  avg # of iterations =  3.5

     negative rho (up, down):  0.000E+00 2.655E-03

     total cpu time spent up to now is     4287.4 secs

     total energy              =  -17780.54844493 Ry
     estimated scf accuracy    <       0.00000045 Ry

     total magnetization       =   119.77 Bohr mag/cell
     absolute magnetization    =   126.64 Bohr mag/cell

     iteration # 31     ecut=    90.00 Ry     beta= 0.20
     Davidson diagonalization with overlap

---- Real-time Memory Report at c_bands before calling an iterative solver
          1436 MiB given to the printing process from OS
           694 MiB allocation reported by mallinfo(arena+hblkhd)
        408505 MiB available memory on the node where the printing process lives
------------------
     ethr =  5.18E-11,  avg # of iterations =  3.4

     negative rho (up, down):  0.000E+00 2.655E-03

     total cpu time spent up to now is     4428.7 secs

     total energy              =  -17780.54844506 Ry
     estimated scf accuracy    <       0.00000065 Ry

     total magnetization       =   119.77 Bohr mag/cell
     absolute magnetization    =   126.63 Bohr mag/cell

     iteration # 32     ecut=    90.00 Ry     beta= 0.20
     Davidson diagonalization with overlap

---- Real-time Memory Report at c_bands before calling an iterative solver
          1436 MiB given to the printing process from OS
           694 MiB allocation reported by mallinfo(arena+hblkhd)
        408488 MiB available memory on the node where the printing process lives
------------------
     ethr =  5.18E-11,  avg # of iterations =  2.2

     negative rho (up, down):  0.000E+00 2.654E-03

     total cpu time spent up to now is     4561.4 secs

     total energy              =  -17780.54844526 Ry
     estimated scf accuracy    <       0.00000027 Ry

     total magnetization       =   119.76 Bohr mag/cell
     absolute magnetization    =   126.63 Bohr mag/cell

     iteration # 33     ecut=    90.00 Ry     beta= 0.20
     Davidson diagonalization with overlap

---- Real-time Memory Report at c_bands before calling an iterative solver
          1436 MiB given to the printing process from OS
           694 MiB allocation reported by mallinfo(arena+hblkhd)
        408500 MiB available memory on the node where the printing process lives
------------------
     ethr =  3.07E-11,  avg # of iterations =  4.4

     negative rho (up, down):  0.000E+00 2.653E-03

     total cpu time spent up to now is     4709.2 secs

     total energy              =  -17780.54844532 Ry
     estimated scf accuracy    <       0.00000044 Ry

     total magnetization       =   119.76 Bohr mag/cell
     absolute magnetization    =   126.63 Bohr mag/cell

     iteration # 34     ecut=    90.00 Ry     beta= 0.20
     Davidson diagonalization with overlap

---- Real-time Memory Report at c_bands before calling an iterative solver
          1436 MiB given to the printing process from OS
           694 MiB allocation reported by mallinfo(arena+hblkhd)
        408472 MiB available memory on the node where the printing process lives
------------------
     ethr =  3.07E-11,  avg # of iterations =  2.1

     negative rho (up, down):  0.000E+00 2.651E-03

     total cpu time spent up to now is     4840.9 secs

     total energy              =  -17780.54844543 Ry
     estimated scf accuracy    <       0.00000039 Ry

     total magnetization       =   119.76 Bohr mag/cell
     absolute magnetization    =   126.63 Bohr mag/cell

     iteration # 35     ecut=    90.00 Ry     beta= 0.20
     Davidson diagonalization with overlap

---- Real-time Memory Report at c_bands before calling an iterative solver
          1436 MiB given to the printing process from OS
           694 MiB allocation reported by mallinfo(arena+hblkhd)
        408472 MiB available memory on the node where the printing process lives
------------------
     ethr =  3.07E-11,  avg # of iterations =  2.6

     negative rho (up, down):  0.000E+00 2.650E-03

     total cpu time spent up to now is     4978.4 secs

     total energy              =  -17780.54844549 Ry
     estimated scf accuracy    <       0.00000039 Ry

     total magnetization       =   119.76 Bohr mag/cell
     absolute magnetization    =   126.62 Bohr mag/cell

     iteration # 36     ecut=    90.00 Ry     beta= 0.20
     Davidson diagonalization with overlap

---- Real-time Memory Report at c_bands before calling an iterative solver
          1436 MiB given to the printing process from OS
           694 MiB allocation reported by mallinfo(arena+hblkhd)
        408469 MiB available memory on the node where the printing process lives
------------------
     ethr =  3.07E-11,  avg # of iterations =  4.0

     negative rho (up, down):  0.000E+00 2.649E-03

     total cpu time spent up to now is     5127.7 secs

     total energy              =  -17780.54844553 Ry
     estimated scf accuracy    <       0.00000005 Ry

     total magnetization       =   119.76 Bohr mag/cell
     absolute magnetization    =   126.62 Bohr mag/cell

     iteration # 37     ecut=    90.00 Ry     beta= 0.20
     Davidson diagonalization with overlap

---- Real-time Memory Report at c_bands before calling an iterative solver
          1436 MiB given to the printing process from OS
           694 MiB allocation reported by mallinfo(arena+hblkhd)
        408448 MiB available memory on the node where the printing process lives
------------------
     ethr =  5.59E-12,  avg # of iterations =  4.9

     negative rho (up, down):  0.000E+00 2.649E-03

     total cpu time spent up to now is     5281.3 secs

     total energy              =  -17780.54844554 Ry
     estimated scf accuracy    <       0.00000008 Ry

     total magnetization       =   119.76 Bohr mag/cell
     absolute magnetization    =   126.62 Bohr mag/cell

     iteration # 38     ecut=    90.00 Ry     beta= 0.20
     Davidson diagonalization with overlap

---- Real-time Memory Report at c_bands before calling an iterative solver
          1436 MiB given to the printing process from OS
           694 MiB allocation reported by mallinfo(arena+hblkhd)
        408460 MiB available memory on the node where the printing process lives
------------------
     ethr =  5.59E-12,  avg # of iterations =  1.0

     negative rho (up, down):  0.000E+00 2.649E-03

     total cpu time spent up to now is     5400.0 secs

     total energy              =  -17780.54844554 Ry
     estimated scf accuracy    <       0.00000002 Ry

     total magnetization       =   119.76 Bohr mag/cell
     absolute magnetization    =   126.62 Bohr mag/cell

     iteration # 39     ecut=    90.00 Ry     beta= 0.20
     Davidson diagonalization with overlap

---- Real-time Memory Report at c_bands before calling an iterative solver
          1436 MiB given to the printing process from OS
           694 MiB allocation reported by mallinfo(arena+hblkhd)
        408440 MiB available memory on the node where the printing process lives
------------------
     ethr =  2.57E-12,  avg # of iterations =  2.1

     negative rho (up, down):  0.000E+00 2.649E-03

     total cpu time spent up to now is     5536.1 secs

     total energy              =  -17780.54844555 Ry
     estimated scf accuracy    <       0.00000003 Ry

     total magnetization       =   119.76 Bohr mag/cell
     absolute magnetization    =   126.62 Bohr mag/cell

     iteration # 40     ecut=    90.00 Ry     beta= 0.20
     Davidson diagonalization with overlap

---- Real-time Memory Report at c_bands before calling an iterative solver
          1436 MiB given to the printing process from OS
           694 MiB allocation reported by mallinfo(arena+hblkhd)
        408456 MiB available memory on the node where the printing process lives
------------------
     ethr =  2.57E-12,  avg # of iterations =  1.1

     negative rho (up, down):  0.000E+00 2.649E-03

     Magnetic moment per site  (integrated on atomic sphere of radius R)
     atom   1 (R=0.119)  charge= 14.4212  magn=  2.2720
     atom   2 (R=0.119)  charge= 14.4212  magn=  2.2720
     atom   3 (R=0.119)  charge= 14.4212  magn=  2.2720
     atom   4 (R=0.119)  charge= 14.4212  magn=  2.2720
     atom   5 (R=0.119)  charge= 14.4212  magn=  2.2720
     atom   6 (R=0.119)  charge= 14.4212  magn=  2.2720
     atom   7 (R=0.119)  charge= 14.4212  magn=  2.2720
     atom   8 (R=0.119)  charge= 14.4212  magn=  2.2720
     atom   9 (R=0.119)  charge= 14.4212  magn=  2.2719
     atom  10 (R=0.119)  charge= 14.4212  magn=  2.2719
     atom  11 (R=0.119)  charge= 14.4212  magn=  2.2719
     atom  12 (R=0.119)  charge= 14.4212  magn=  2.2720
     atom  13 (R=0.119)  charge= 14.4212  magn=  2.2720
     atom  14 (R=0.119)  charge= 14.4212  magn=  2.2720
     atom  15 (R=0.119)  charge= 14.4212  magn=  2.2719
     atom  16 (R=0.119)  charge= 14.4212  magn=  2.2720
     atom  17 (R=0.119)  charge= 14.4212  magn=  2.2719
     atom  18 (R=0.119)  charge= 14.4212  magn=  2.2720
     atom  19 (R=0.119)  charge= 14.4212  magn=  2.2720
     atom  20 (R=0.119)  charge= 14.4212  magn=  2.2720
     atom  21 (R=0.119)  charge= 14.4212  magn=  2.2719
     atom  22 (R=0.119)  charge= 14.4212  magn=  2.2719
     atom  23 (R=0.119)  charge= 14.4212  magn=  2.2719
     atom  24 (R=0.119)  charge= 14.4212  magn=  2.2720
     atom  25 (R=0.119)  charge= 14.4212  magn=  2.2719
     atom  26 (R=0.119)  charge= 14.4212  magn=  2.2719
     atom  27 (R=0.119)  charge= 14.4212  magn=  2.2719
     atom  28 (R=0.119)  charge= 14.4211  magn=  2.2718
     atom  29 (R=0.119)  charge= 14.4212  magn=  2.2719
     atom  30 (R=0.119)  charge= 14.4212  magn=  2.2719
     atom  31 (R=0.119)  charge= 14.4212  magn=  2.2719
     atom  32 (R=0.119)  charge= 14.4212  magn=  2.2720
     atom  33 (R=0.119)  charge= 14.4212  magn=  2.2719
     atom  34 (R=0.119)  charge= 14.4212  magn=  2.2719
     atom  35 (R=0.119)  charge= 14.4212  magn=  2.2719
     atom  36 (R=0.119)  charge= 14.4212  magn=  2.2720
     atom  37 (R=0.119)  charge= 14.4212  magn=  2.2720
     atom  38 (R=0.119)  charge= 14.4212  magn=  2.2720
     atom  39 (R=0.119)  charge= 14.4212  magn=  2.2719
     atom  40 (R=0.119)  charge= 14.4212  magn=  2.2720
     atom  41 (R=0.119)  charge= 14.4212  magn=  2.2719
     atom  42 (R=0.119)  charge= 14.4212  magn=  2.2720
     atom  43 (R=0.119)  charge= 14.4212  magn=  2.2719
     atom  44 (R=0.119)  charge= 14.4212  magn=  2.2720
     atom  45 (R=0.119)  charge= 14.4212  magn=  2.2719
     atom  46 (R=0.119)  charge= 14.4212  magn=  2.2719
     atom  47 (R=0.119)  charge= 14.4212  magn=  2.2719
     atom  48 (R=0.119)  charge= 14.4212  magn=  2.2720
     atom  49 (R=0.119)  charge= 14.4212  magn=  2.2719
     atom  50 (R=0.119)  charge= 14.4212  magn=  2.2720
     atom  51 (R=0.119)  charge= 14.4212  magn=  2.2719
     atom  52 (R=0.119)  charge= 14.4212  magn=  2.2720
     atom  53 (R=0.119)  charge= 14.4212  magn=  2.2719
     atom  54 (R=0.119)  charge= 14.4212  magn=  2.2720

     total cpu time spent up to now is     5660.2 secs

     End of self-consistent calculation

 ------ SPIN UP ------------


          k = 0.0000 0.0000 0.0000 ( 62093 PWs)   bands (ev):

   -70.5978 -70.5654 -70.5654 -70.5654 -70.5654 -70.5654 -70.5654 -70.5475
   -70.5475 -70.5475 -70.5475 -70.5475 -70.5475 -70.5475 -70.5475 -70.5475
   -70.5475 -70.5475 -70.5475 -70.5369 -70.5369 -70.5369 -70.5369 -70.5369
   -70.5369 -70.5369 -70.5369 -70.5223 -70.5223 -70.5223 -70.5223 -70.5223
   -70.5223 -70.5223 -70.5222 -70.5183 -70.5183 -70.5183 -70.5183 -70.5183
   -70.5182 -70.5182 -70.5182 -70.5182 -70.5182 -70.5182 -70.5182 -70.5069
   -70.5069 -70.5069 -70.5069 -70.5069 -70.5069 -70.4809 -36.7595 -36.7594
   -36.7594 -36.7594 -36.7594 -36.7594 -36.7594 -36.7594 -36.7594 -36.7594
   -36.7594 -36.7594 -36.7076 -36.7076 -36.7076 -36.7076 -36.7076 -36.7076
   -36.7076 -36.7076 -36.6951 -36.6951 -36.6951 -36.6951 -36.6951 -36.6951
   -36.6951 -36.6951 -36.6951 -36.6951 -36.6951 -36.6951 -36.6843 -36.6843
   -36.6843 -36.6722 -36.6722 -36.6722 -36.6722 -36.6722 -36.6722 -36.6722
   -36.6722 -36.6722 -36.6722 -36.6722 -36.6722 -36.6722 -36.6722 -36.6722
   -36.6722 -36.6607 -36.6607 -36.6607 -36.6607 -36.6607 -36.6607 -36.6161
   -36.6161 -36.6161 -36.6160 -36.6160 -36.6160 -36.6160 -36.6160 -36.6160
   -36.6160 -36.6160 -36.6160 -36.5799 -36.5799 -36.5799 -36.5799 -36.5799
   -36.5799 -36.5799 -36.5799 -36.5799 -36.5798 -36.5798 -36.5798 -36.5301
   -36.5301 -36.5301 -36.5301 -36.5301 -36.5301 -36.5144 -36.5144 -36.5144
   -36.5144 -36.5144 -36.5144 -36.5144 -36.5144 -36.5144 -36.5143 -36.5143
   -36.5143 -36.5033 -36.5033 -36.5033 -36.5033 -36.5033 -36.5033 -36.5033
   -36.5033 -36.5033 -36.5033 -36.5033 -36.5033 -36.5033 -36.5033 -36.5033
   -36.5033 -36.4882 -36.4882 -36.4882 -36.4882 -36.4882 -36.4881 -36.4881
   -36.4881 -36.4881 -36.4881 -36.4881 -36.4881 -36.4850 -36.4850 -36.4850
   -36.4850 -36.4850 -36.4850 -36.4850 -36.4850 -36.4850 -36.4850 -36.4850
   -36.4850 -36.4680 -36.4680 -36.4680 -36.4680 -36.4680 -36.4680 -36.4680
   -36.4680 -36.4223 -36.4223 -36.4223 -36.4219 -36.4219 -36.4219 -36.4219
   -36.4218 -36.4218 -36.4218 -36.4218 -36.4218 -36.4218 -36.4218 -36.4218
     9.1532  11.2063  11.2063  11.2063  11.2063  11.2063  11.2063  12.3537
    12.3537  12.3537  12.3537  12.3537  12.3537  12.3537  12.3537  12.3537
    12.3537  12.3537  12.3537  12.7943  12.7943  13.2082  13.2082  13.2082
    13.2082  13.2082  13.2082  13.2082  13.2082  13.2082  13.2082  13.2082
    13.2082  13.3739  13.3739  13.3739  13.3739  13.3739  13.3739  13.6656
    13.6656  13.6656  13.6656  13.6656  13.6656  13.8496  13.8496  13.8496
    13.8496  13.8496  13.8496  13.8496  13.8496  13.9127  13.9127  13.9127
    13.9127  13.9127  13.9127  13.9127  13.9127  14.2379  14.2379  14.2379
    14.2379  14.2379  14.2379  14.2379  14.2379  14.2379  14.2379  14.2379
    14.2379  14.2379  14.2380  14.2380  14.2380  14.4492  14.4492  14.4492
    14.4492  14.4492  14.4492  14.4492  14.4492  14.4492  14.4492  14.4492
    14.4492  14.4492  14.4492  14.4492  14.4492  14.4493  14.4493  14.4493
    14.4493  14.4493  14.4493  14.4493  14.4493  14.4493  14.4494  14.4494
    14.4494  14.7209  14.7209  14.7209  14.7209  14.7209  14.7209  14.7209
    14.7209  14.7209  14.7209  14.7209  14.7209  14.8621  14.8621  14.8621
    14.8621  14.8621  14.8621  14.8621  14.8621  14.8621  14.8621  14.8621
    14.8621  15.2361  15.2361  15.2361  15.3249  15.3249  15.3249  15.3249
    15.3249  15.3249  15.3249  15.3249  15.3249  15.3250  15.3250  15.3250
    15.4636  15.4637  15.4637  15.4637  15.4637  15.4637  15.5172  15.5172
    15.5172  15.5172  15.5172  15.5172  15.5172  15.5172  15.5172  15.5172
    15.5172  15.5172  15.7935  15.7935  15.7935  15.7935  15.7935  15.7935
    16.0863  16.0863  16.0863  16.0863  16.0863  16.0863  16.0863  16.0863
    16.0863  16.0863  16.0863  16.0863  16.3144  16.3144  16.3144  16.3144
    16.3144  16.3144  16.3144  16.3144  16.3144  16.3144  16.3144  16.3144
    16.3661  16.3661  16.3674  16.3674  16.3674  16.3674  16.3674  16.3674
    16.3674  16.3674  16.3674  16.3674  16.3674  16.3674  16.4809  16.4809
    16.4809  16.4809  16.4809  16.4809  16.4809  16.4809  16.4809  16.4810
    16.4810  16.4810  16.4914  16.4914  16.4914  16.4914  16.4914  16.4914
    16.4914  16.4914  16.4914  16.4914  16.4914  16.4914  16.4914  16.4914
    16.4914  16.4914  16.6643  16.6643  16.6643  16.6644  16.6644  16.6644
    16.6644  16.6644  16.6644  16.6644  16.6644  16.6644  16.6644  16.6644
    16.6644  16.6644  16.7367  16.7367  16.7367  16.7367  16.7367  16.7367
    16.9488  16.9488  16.9488  16.9489  16.9489  16.9489  17.0667  17.0667
    17.0667  17.0667  17.0667  17.0667  17.0667  17.0667  17.0667  17.0667
    17.0667  17.0667  17.5462  17.5462  17.5462  17.7389  17.7390  17.7390
    17.7390  17.7390  17.7390  17.7390  17.7390  17.7390  17.7390  17.7390
    17.7390  19.4063  19.4063  19.4063  19.4063  19.4063  19.4063  19.4063
    19.4063  20.1777  20.1777  20.1777  20.1777  20.1777

     occupation numbers 
     1.0000   1.0000   1.0000   1.0000   1.0000   1.0000   1.0000   1.0000
     1.0000   1.0000   1.0000   1.0000   1.0000   1.0000   1.0000   1.0000
     1.0000   1.0000   1.0000   1.0000   1.0000   1.0000   1.0000   1.0000
     1.0000   1.0000   1.0000   1.0000   1.0000   1.0000   1.0000   1.0000
     1.0000   1.0000   1.0000   1.0000   1.0000   1.0000   1.0000   1.0000
     1.0000   1.0000   1.0000   1.0000   1.0000   1.0000   1.0000   1.0000
     1.0000   1.0000   1.0000   1.0000   1.0000   1.0000   1.0000   1.0000
     1.0000   1.0000   1.0000   1.0000   1.0000   1.0000   1.0000   1.0000
     1.0000   1.0000   1.0000   1.0000   1.0000   1.0000   1.0000   1.0000
     1.0000   1.0000   1.0000   1.0000   1.0000   1.0000   1.0000   1.0000
     1.0000   1.0000   1.0000   1.0000   1.0000   1.0000   1.0000   1.0000
     1.0000   1.0000   1.0000   1.0000   1.0000   1.0000   1.0000   1.0000
     1.0000   1.0000   1.0000   1.0000   1.0000   1.0000   1.0000   1.0000
     1.0000   1.0000   1.0000   1.0000   1.0000   1.0000   1.0000   1.0000
     1.0000   1.0000   1.0000   1.0000   1.0000   1.0000   1.0000   1.0000
     1.0000   1.0000   1.0000   1.0000   1.0000   1.0000   1.0000   1.0000
     1.0000   1.0000   1.0000   1.0000   1.0000   1.0000   1.0000   1.0000
     1.0000   1.0000   1.0000   1.0000   1.0000   1.0000   1.0000   1.0000
     1.0000   1.0000   1.0000   1.0000   1.0000   1.0000   1.0000   1.0000
     1.0000   1.0000   1.0000   1.0000   1.0000   1.0000   1.0000   1.0000
     1.0000   1.0000   1.0000   1.0000   1.0000   1.0000   1.0000   1.0000
[...]
     atom   47 type  1   force =     0.00004685   -0.00004685    0.00004685
     atom   48 type  1   force =    -0.00000466    0.00000000   -0.00000466
     atom   49 type  1   force =    -0.00001660   -0.00001660   -0.00000000
     atom   50 type  1   force =    -0.00000687   -0.00000687    0.00000687
     atom   51 type  1   force =     0.00004685    0.00004685   -0.00004685
     atom   52 type  1   force =    -0.00000466   -0.00000466    0.00000000
     atom   53 type  1   force =     0.00004685    0.00004685    0.00004685
     atom   54 type  1   force =    -0.00000687   -0.00000687   -0.00000687
     The core correction contribution to forces
     atom    1 type  1   force =     0.00000000    0.00000000    0.00000000
     atom    2 type  1   force =    -0.00000003   -0.00000003   -0.00000003
     atom    3 type  1   force =     0.00000000    0.00000000    0.00000008
     atom    4 type  1   force =    -0.00000002   -0.00000002   -0.00000000
     atom    5 type  1   force =     0.00000000    0.00000000   -0.00000008
     atom    6 type  1   force =    -0.00000003   -0.00000003    0.00000003
     atom    7 type  1   force =     0.00000000    0.00000008    0.00000000
     atom    8 type  1   force =    -0.00000002   -0.00000000   -0.00000002
     atom    9 type  1   force =     0.00000000    0.00000002    0.00000002
     atom   10 type  1   force =     0.00000014   -0.00000000   -0.00000000
     atom   11 type  1   force =     0.00000000    0.00000002   -0.00000002
     atom   12 type  1   force =    -0.00000002   -0.00000000    0.00000002
     atom   13 type  1   force =     0.00000000   -0.00000008    0.00000000
     atom   14 type  1   force =    -0.00000003    0.00000003   -0.00000003
     atom   15 type  1   force =     0.00000000   -0.00000002    0.00000002
     atom   16 type  1   force =    -0.00000002    0.00000002   -0.00000000
     atom   17 type  1   force =     0.00000000   -0.00000002   -0.00000002
     atom   18 type  1   force =    -0.00000003    0.00000003    0.00000003
     atom   19 type  1   force =     0.00000008    0.00000000    0.00000000
     atom   20 type  1   force =    -0.00000000   -0.00000002   -0.00000002
     atom   21 type  1   force =     0.00000002    0.00000000    0.00000002
     atom   22 type  1   force =    -0.00000000    0.00000014   -0.00000000
     atom   23 type  1   force =     0.00000002    0.00000000   -0.00000002
     atom   24 type  1   force =    -0.00000000   -0.00000002    0.00000002
     atom   25 type  1   force =     0.00000002    0.00000002    0.00000000
     atom   26 type  1   force =    -0.00000000   -0.00000000    0.00000014
     atom   27 type  1   force =    -0.00000055   -0.00000055   -0.00000055
     atom   28 type  1   force =    -0.00000000   -0.00000000   -0.00000000
     atom   29 type  1   force =    -0.00000055   -0.00000055    0.00000055
     atom   30 type  1   force =    -0.00000000   -0.00000000   -0.00000014
     atom   31 type  1   force =     0.00000002   -0.00000002    0.00000000
     atom   32 type  1   force =    -0.00000000    0.00000002   -0.00000002
     atom   33 type  1   force =    -0.00000055    0.00000055   -0.00000055
     atom   34 type  1   force =    -0.00000000   -0.00000014   -0.00000000
     atom   35 type  1   force =    -0.00000055    0.00000055    0.00000055
     atom   36 type  1   force =    -0.00000000    0.00000002    0.00000002
     atom   37 type  1   force =    -0.00000008    0.00000000    0.00000000
     atom   38 type  1   force =     0.00000003   -0.00000003   -0.00000003
     atom   39 type  1   force =    -0.00000002    0.00000000    0.00000002
     atom   40 type  1   force =     0.00000002   -0.00000002   -0.00000000
     atom   41 type  1   force =    -0.00000002    0.00000000   -0.00000002
     atom   42 type  1   force =     0.00000003   -0.00000003    0.00000003
     atom   43 type  1   force =    -0.00000002    0.00000002    0.00000000
     atom   44 type  1   force =     0.00000002   -0.00000000   -0.00000002
     atom   45 type  1   force =     0.00000055   -0.00000055   -0.00000055
     atom   46 type  1   force =    -0.00000014   -0.00000000   -0.00000000
     atom   47 type  1   force =     0.00000055   -0.00000055    0.00000055
     atom   48 type  1   force =     0.00000002   -0.00000000    0.00000002
     atom   49 type  1   force =    -0.00000002   -0.00000002    0.00000000
     atom   50 type  1   force =     0.00000003    0.00000003   -0.00000003
     atom   51 type  1   force =     0.00000055    0.00000055   -0.00000055
     atom   52 type  1   force =     0.00000002    0.00000002   -0.00000000
     atom   53 type  1   force =     0.00000055    0.00000055    0.00000055
     atom   54 type  1   force =     0.00000003    0.00000003    0.00000003
     The Hubbard contrib.    to forces
     atom    1 type  1   force =     0.00000000    0.00000000    0.00000000
     atom    2 type  1   force =     0.00000000    0.00000000    0.00000000
     atom    3 type  1   force =     0.00000000    0.00000000    0.00000000
     atom    4 type  1   force =     0.00000000    0.00000000    0.00000000
     atom    5 type  1   force =     0.00000000    0.00000000    0.00000000
     atom    6 type  1   force =     0.00000000    0.00000000    0.00000000
     atom    7 type  1   force =     0.00000000    0.00000000    0.00000000
     atom    8 type  1   force =     0.00000000    0.00000000    0.00000000
     atom    9 type  1   force =     0.00000000    0.00000000    0.00000000
     atom   10 type  1   force =     0.00000000    0.00000000    0.00000000
     atom   11 type  1   force =     0.00000000    0.00000000    0.00000000
     atom   12 type  1   force =     0.00000000    0.00000000    0.00000000
     atom   13 type  1   force =     0.00000000    0.00000000    0.00000000
     atom   14 type  1   force =     0.00000000    0.00000000    0.00000000
     atom   15 type  1   force =     0.00000000    0.00000000    0.00000000
     atom   16 type  1   force =     0.00000000    0.00000000    0.00000000
     atom   17 type  1   force =     0.00000000    0.00000000    0.00000000
     atom   18 type  1   force =     0.00000000    0.00000000    0.00000000
     atom   19 type  1   force =     0.00000000    0.00000000    0.00000000
     atom   20 type  1   force =     0.00000000    0.00000000    0.00000000
     atom   21 type  1   force =     0.00000000    0.00000000    0.00000000
     atom   22 type  1   force =     0.00000000    0.00000000    0.00000000
     atom   23 type  1   force =     0.00000000    0.00000000    0.00000000
     atom   24 type  1   force =     0.00000000    0.00000000    0.00000000
     atom   25 type  1   force =     0.00000000    0.00000000    0.00000000
     atom   26 type  1   force =     0.00000000    0.00000000    0.00000000
     atom   27 type  1   force =     0.00000000    0.00000000    0.00000000
     atom   28 type  1   force =     0.00000000    0.00000000    0.00000000
     atom   29 type  1   force =     0.00000000    0.00000000    0.00000000
     atom   30 type  1   force =     0.00000000    0.00000000    0.00000000
     atom   31 type  1   force =     0.00000000    0.00000000    0.00000000
     atom   32 type  1   force =     0.00000000    0.00000000    0.00000000
     atom   33 type  1   force =     0.00000000    0.00000000    0.00000000
     atom   34 type  1   force =     0.00000000    0.00000000    0.00000000
     atom   35 type  1   force =     0.00000000    0.00000000    0.00000000
     atom   36 type  1   force =     0.00000000    0.00000000    0.00000000
     atom   37 type  1   force =     0.00000000    0.00000000    0.00000000
     atom   38 type  1   force =     0.00000000    0.00000000    0.00000000
     atom   39 type  1   force =     0.00000000    0.00000000    0.00000000
     atom   40 type  1   force =     0.00000000    0.00000000    0.00000000
     atom   41 type  1   force =     0.00000000    0.00000000    0.00000000
     atom   42 type  1   force =     0.00000000    0.00000000    0.00000000
     atom   43 type  1   force =     0.00000000    0.00000000    0.00000000
     atom   44 type  1   force =     0.00000000    0.00000000    0.00000000
     atom   45 type  1   force =     0.00000000    0.00000000    0.00000000
     atom   46 type  1   force =     0.00000000    0.00000000    0.00000000
     atom   47 type  1   force =     0.00000000    0.00000000    0.00000000
     atom   48 type  1   force =     0.00000000    0.00000000    0.00000000
     atom   49 type  1   force =     0.00000000    0.00000000    0.00000000
     atom   50 type  1   force =     0.00000000    0.00000000    0.00000000
     atom   51 type  1   force =     0.00000000    0.00000000    0.00000000
     atom   52 type  1   force =     0.00000000    0.00000000    0.00000000
     atom   53 type  1   force =     0.00000000    0.00000000    0.00000000
     atom   54 type  1   force =     0.00000000    0.00000000    0.00000000
     The SCF correction term to forces
     atom    1 type  1   force =    -0.00000000   -0.00000000    0.00000000
     atom    2 type  1   force =    -0.00000719   -0.00000719   -0.00000719
     atom    3 type  1   force =    -0.00000000    0.00000000   -0.00004302
     atom    4 type  1   force =    -0.00000205   -0.00000205    0.00000000
     atom    5 type  1   force =    -0.00000000    0.00000000    0.00004302
     atom    6 type  1   force =    -0.00000719   -0.00000719    0.00000719
     atom    7 type  1   force =    -0.00000000   -0.00004302    0.00000000
     atom    8 type  1   force =    -0.00000205   -0.00000000   -0.00000205
     atom    9 type  1   force =    -0.00000000   -0.00000130   -0.00000130
     atom   10 type  1   force =     0.00005036    0.00000000    0.00000000
     atom   11 type  1   force =    -0.00000000   -0.00000130    0.00000130
     atom   12 type  1   force =    -0.00000205   -0.00000000    0.00000205
     atom   13 type  1   force =    -0.00000000    0.00004302    0.00000000
     atom   14 type  1   force =    -0.00000719    0.00000719   -0.00000719
     atom   15 type  1   force =    -0.00000000    0.00000130   -0.00000130
     atom   16 type  1   force =    -0.00000205    0.00000205    0.00000000
     atom   17 type  1   force =    -0.00000000    0.00000130    0.00000130
     atom   18 type  1   force =    -0.00000719    0.00000719    0.00000719
     atom   19 type  1   force =    -0.00004302    0.00000000    0.00000000
     atom   20 type  1   force =    -0.00000000   -0.00000205   -0.00000205
     atom   21 type  1   force =    -0.00000130    0.00000000   -0.00000130
     atom   22 type  1   force =     0.00000000    0.00005036    0.00000000
     atom   23 type  1   force =    -0.00000130    0.00000000    0.00000130
     atom   24 type  1   force =    -0.00000000   -0.00000205    0.00000205
     atom   25 type  1   force =    -0.00000130   -0.00000130    0.00000000
     atom   26 type  1   force =    -0.00000000   -0.00000000    0.00005036
     atom   27 type  1   force =     0.00005931    0.00005931    0.00005931
     atom   28 type  1   force =     0.00000000    0.00000000    0.00000000
     atom   29 type  1   force =     0.00005931    0.00005931   -0.00005931
     atom   30 type  1   force =    -0.00000000   -0.00000000   -0.00005036
     atom   31 type  1   force =    -0.00000130    0.00000130    0.00000000
     atom   32 type  1   force =    -0.00000000    0.00000205   -0.00000205
     atom   33 type  1   force =     0.00005931   -0.00005931    0.00005931
     atom   34 type  1   force =     0.00000000   -0.00005036    0.00000000
     atom   35 type  1   force =     0.00005931   -0.00005931   -0.00005931
     atom   36 type  1   force =    -0.00000000    0.00000205    0.00000205
     atom   37 type  1   force =     0.00004302    0.00000000    0.00000000
     atom   38 type  1   force =     0.00000719   -0.00000719   -0.00000719
     atom   39 type  1   force =     0.00000130   -0.00000000   -0.00000130
     atom   40 type  1   force =     0.00000205   -0.00000205    0.00000000
     atom   41 type  1   force =     0.00000130    0.00000000    0.00000130
     atom   42 type  1   force =     0.00000719   -0.00000719    0.00000719
     atom   43 type  1   force =     0.00000130   -0.00000130    0.00000000
     atom   44 type  1   force =     0.00000205    0.00000000   -0.00000205
     atom   45 type  1   force =    -0.00005931    0.00005931    0.00005931
     atom   46 type  1   force =    -0.00005036    0.00000000    0.00000000
     atom   47 type  1   force =    -0.00005931    0.00005931   -0.00005931
     atom   48 type  1   force =     0.00000205   -0.00000000    0.00000205
     atom   49 type  1   force =     0.00000130    0.00000130    0.00000000
     atom   50 type  1   force =     0.00000719    0.00000719   -0.00000719
     atom   51 type  1   force =    -0.00005931   -0.00005931    0.00005931
     atom   52 type  1   force =     0.00000205    0.00000205    0.00000000
     atom   53 type  1   force =    -0.00005931   -0.00005931   -0.00005931
     atom   54 type  1   force =     0.00000719    0.00000719    0.00000719

     Total force =     0.000017     Total SCF correction =     0.000335
     SCF correction compared to forces is large: reduce conv_thr to get better values


     Computing stress (Cartesian axis) and pressure


     negative rho (up, down):  0.000E+00 2.649E-03
          total   stress  (Ry/bohr**3)                   (kbar)     P=      -72.28
  -0.00049134   0.00000000   0.00000000          -72.28        0.00        0.00
   0.00000000  -0.00049134   0.00000000            0.00      -72.28        0.00
   0.00000000   0.00000000  -0.00049134            0.00        0.00      -72.28

     kinetic stress (kbar)  95423.78      0.00      0.00
                                0.00  95423.78      0.00
                                0.00      0.00  95423.78

     local   stress (kbar)  12108.12      0.00     -0.00
                                0.00  12108.12     -0.00
                               -0.00     -0.00  12108.12

     nonloc. stress (kbar) -26162.29      0.00      0.00
                                0.00 -26162.29      0.00
                                0.00      0.00 -26162.29

     hartree stress (kbar)  40797.57     -0.00      0.00
                               -0.00  40797.57      0.00
                                0.00      0.00  40797.57

     exc-cor stress (kbar) -13739.70     -0.00      0.00
                               -0.00 -13739.70      0.00
                                0.00      0.00 -13739.70

     corecor stress (kbar)  -2619.82      0.00     -0.00
                                0.00  -2619.82      0.00
                               -0.00      0.00  -2619.82

     ewald   stress (kbar)-105879.93      0.00      0.00
                                0.00-105879.93     -0.00
                                0.00     -0.00-105879.93

     hubbard stress (kbar)      0.00      0.00      0.00
                                0.00      0.00      0.00
                                0.00      0.00      0.00

     DFT-D   stress (kbar)      0.00      0.00      0.00
                                0.00      0.00      0.00
                                0.00      0.00      0.00

     XDM     stress (kbar)      0.00      0.00      0.00
                                0.00      0.00      0.00
                                0.00      0.00      0.00

     dft-nl  stress (kbar)      0.00      0.00      0.00
                                0.00      0.00      0.00
                                0.00      0.00      0.00

     TS-vdW  stress (kbar)      0.00      0.00      0.00
                                0.00      0.00      0.00
                                0.00      0.00      0.00

     MDB     stress (kbar)      0.00      0.00      0.00
                                0.00      0.00      0.00
                                0.00      0.00      0.00

     3D-RISM stress (kbar)      0.00      0.00      0.00
                                0.00      0.00      0.00
                                0.00      0.00      0.00

     Message from routine punch:
     Nothing written, as per user request (disk_io='none')

     init_run     :     46.47s CPU     49.44s WALL (       1 calls)
     electrons    :   5337.77s CPU   5610.07s WALL (       1 calls)
     forces       :     24.96s CPU     26.28s WALL (       1 calls)
     stress       :    514.55s CPU    526.69s WALL (       1 calls)

     Called by init_run:
     wfcinit      :     37.52s CPU     39.25s WALL (       1 calls)
     wfcinit:atom :      0.13s CPU      0.26s WALL (       9 calls)
     wfcinit:wfcr :     36.00s CPU     37.34s WALL (       9 calls)
     potinit      :      1.94s CPU      2.22s WALL (       1 calls)
     hinit0       :      1.39s CPU      1.49s WALL (       1 calls)

     Called by electrons:
     c_bands      :   4547.93s CPU   4770.18s WALL (      40 calls)
     sum_band     :    718.53s CPU    756.06s WALL (      40 calls)
     v_of_rho     :     40.82s CPU     47.69s WALL (      41 calls)
     v_h          :      0.97s CPU      1.16s WALL (      41 calls)
     v_xc         :     41.59s CPU     48.55s WALL (      43 calls)
     newd         :     10.71s CPU     13.07s WALL (      41 calls)
     PAW_pot      :     13.43s CPU     15.19s WALL (      41 calls)
     mix_rho      :      1.70s CPU      2.31s WALL (      40 calls)

     Called by c_bands:
     init_us_2    :     53.35s CPU     54.36s WALL (     747 calls)
     cegterg      :   4170.97s CPU   4341.80s WALL (     360 calls)

     Called by sum_band:
     sum_band:wei :      0.39s CPU      0.45s WALL (      40 calls)
     sum_band:loo :    674.41s CPU    703.79s WALL (      40 calls)
     sum_band:buf :      7.27s CPU      7.92s WALL (     360 calls)
     sum_band:ini :     17.40s CPU     17.62s WALL (     360 calls)
     sum_band:cal :    181.95s CPU    189.21s WALL (     360 calls)
     sum_band:bec :      2.09s CPU      2.13s WALL (     360 calls)
     addusdens    :     11.36s CPU     13.43s WALL (      40 calls)
                                        0.00s GPU  (      40 calls)
     addusd:skk   :      0.45s CPU      0.60s WALL (      40 calls)
                                        0.00s GPU  (      40 calls)

     Called by *egterg:
     cdiaghg      :    185.41s CPU    208.04s WALL (    1228 calls)
     cegterg:over :    392.47s CPU    405.28s WALL (     868 calls)
     cegterg:upda :    245.27s CPU    255.98s WALL (     868 calls)
     cegterg:last :    564.18s CPU    580.73s WALL (     636 calls)
     cdiaghg:chol :     14.87s CPU     17.17s WALL (    1228 calls)
     cdiaghg:inve :     15.86s CPU     18.82s WALL (    1228 calls)
     cdiaghg:para :     39.47s CPU     47.90s WALL (    2456 calls)
     h_psi        :   2265.29s CPU   2347.71s WALL (    1237 calls)
     s_psi        :    369.56s CPU    373.17s WALL (    1237 calls)
     g_psi        :      5.27s CPU      5.33s WALL (     868 calls)

     Called by h_psi:
     h_psi:calbec :    398.06s CPU    412.24s WALL (    1237 calls)
     vloc_psi     :   1482.86s CPU   1535.07s WALL (    1237 calls)
     add_vuspsi   :    370.27s CPU    373.83s WALL (    1237 calls)

     General routines
     calbec       :    638.55s CPU    666.93s WALL (    1642 calls)
     fft          :     22.77s CPU     28.44s WALL (    1063 calls)
     ffts         :      1.47s CPU      1.84s WALL (     162 calls)
     fftw         :   1013.51s CPU   1072.54s WALL (  977250 calls)
     interpolate  :      2.98s CPU      3.49s WALL (      82 calls)

     Parallel routines

     PAW routines
     PAW_pot      :     13.43s CPU     15.19s WALL (      41 calls)
     PAW_symme    :      0.85s CPU      1.08s WALL (      81 calls)

     PWSCF        :   5924.17s CPU   6214.19s WALL


   This run was terminated on:   7:33:10  23May2025            

=------------------------------------------------------------------------------=
   JOB DONE.
=------------------------------------------------------------------------------=
