
     Program PWSCF v.7.3.1 starts on 11May2025 at  5:50:36 

     This program is part of the open-source Quantum ESPRESSO suite
     for quantum simulation of materials; please cite
         "P. Giannozzi et al., J. Phys.:Condens. Matter 21 395502 (2009);
         "P. Giannozzi et al., J. Phys.:Condens. Matter 29 465901 (2017);
         "P. Giannozzi et al., J. Chem. Phys. 152 154105 (2020);
          URL http://www.quantum-espresso.org", 
     in publications or presentations arising from this work. More details at
     http://www.quantum-espresso.org/quote

     Parallel version (MPI & OpenMP), running on     128 processor cores
     Number of MPI processes:               128
     Threads/MPI process:                     1

     MPI processes distributed on     1 nodes
     460449 MiB available memory on the printing compute node when the environment starts

     Waiting for input...
     Reading input from standard input

     Current dimensions of program PWSCF are:
     Max number of different atomic species (ntypx) = 10
     Max number of k-points (npk) =  40000
     Max angular momentum in pseudopotentials (lmaxx) =  4

     K-points division:     npool     =      16
     R & G space division:  proc/nbgrp/npool/nimage =       8
     Subspace diagonalization in iterative solution of the eigenvalue problem:
     a serial algorithm will be used


     Parallelization info
     --------------------
     sticks:   dense  smooth     PW     G-vecs:    dense   smooth      PW
     Min         222      74     22                 5949     1147     199
     Max         223      75     23                 5951     1149     201
     Sum        1781     599    181                47597     9189    1601

     Using Slab Decomposition



     bravais-lattice index     =            3
     lattice parameter (alat)  =       5.4200  a.u.
     unit-cell volume          =      79.6100 (a.u.)^3
     number of atoms/cell      =            1
     number of atomic types    =            1
     number of electrons       =        16.00
     number of Kohn-Sham states=           12
     kinetic-energy cutoff     =      90.0000  Ry
     charge density cutoff     =    1080.0000  Ry
     scf convergence threshold =      1.0E-10
     mixing beta               =       0.2000
     number of iterations used =            8  plain     mixing
     Exchange-correlation= PBE
                           (   1   4   3   4   0   0   0)

     celldm(1)=   5.420000  celldm(2)=   0.000000  celldm(3)=   0.000000
     celldm(4)=   0.000000  celldm(5)=   0.000000  celldm(6)=   0.000000

     crystal axes: (cart. coord. in units of alat)
               a(1) = (   0.500000   0.500000   0.500000 )  
               a(2) = (  -0.500000   0.500000   0.500000 )  
               a(3) = (  -0.500000  -0.500000   0.500000 )  

     reciprocal axes: (cart. coord. in units 2 pi/alat)
               b(1) = (  1.000000  0.000000  1.000000 )  
               b(2) = ( -1.000000  1.000000  0.000000 )  
               b(3) = (  0.000000 -1.000000  1.000000 )  


     PseudoPot. # 1 for Fe read from file:
     ../../../pseudopotentials/Fe.pbe-spn-rrkjus_psl.0.2.1.UPF
     MD5 check sum: f9af58635850a145d9bd408d58feeb93
     Pseudo is Ultrasoft + core correction, Zval = 16.0
     Generated using "atomic" code by A. Dal Corso  v.5.0.2 svn rev. 9415
     Using radial grid of 1191 points,  6 beta functions with: 
                l(1) =   0
                l(2) =   0
                l(3) =   1
                l(4) =   1
                l(5) =   2
                l(6) =   2
     Q(r) pseudized with 0 coefficients 


     atomic species   valence    mass     pseudopotential
     Fe               16.00    55.84500     Fe( 1.00)

     48 Sym. Ops., with inversion, found


                                    s                        frac. trans.

      isym =  1     identity                                     

 cryst.   s( 1) = (     1          0          0      )
                  (     0          1          0      )
                  (     0          0          1      )

 cart.    s( 1) = (  1.0000000  0.0000000  0.0000000 )
                  (  0.0000000  1.0000000  0.0000000 )
                  (  0.0000000  0.0000000  1.0000000 )


      isym =  2     180 deg rotation - cart. axis [0,0,1]        

 cryst.   s( 2) = (     0          0          1      )
                  (     1         -1          1      )
                  (     1          0          0      )

 cart.    s( 2) = ( -1.0000000  0.0000000  0.0000000 )
                  (  0.0000000 -1.0000000  0.0000000 )
                  (  0.0000000  0.0000000  1.0000000 )


      isym =  3     180 deg rotation - cart. axis [0,1,0]        

 cryst.   s( 3) = (    -1          1         -1      )
                  (     0          0         -1      )
                  (     0         -1          0      )

 cart.    s( 3) = ( -1.0000000  0.0000000  0.0000000 )
                  (  0.0000000  1.0000000  0.0000000 )
                  (  0.0000000  0.0000000 -1.0000000 )


      isym =  4     180 deg rotation - cart. axis [1,0,0]        

 cryst.   s( 4) = (     0         -1          0      )
                  (    -1          0          0      )
                  (    -1          1         -1      )

 cart.    s( 4) = (  1.0000000  0.0000000  0.0000000 )
                  (  0.0000000 -1.0000000  0.0000000 )
                  (  0.0000000  0.0000000 -1.0000000 )


      isym =  5     180 deg rotation - cart. axis [1,1,0]        

 cryst.   s( 5) = (     0          0         -1      )
                  (     0         -1          0      )
                  (    -1          0          0      )

 cart.    s( 5) = (  0.0000000  1.0000000  0.0000000 )
                  (  1.0000000  0.0000000  0.0000000 )
                  (  0.0000000  0.0000000 -1.0000000 )


      isym =  6     180 deg rotation - cart. axis [1,-1,0]       

 cryst.   s( 6) = (    -1          0          0      )
                  (    -1          1         -1      )
                  (     0          0         -1      )

 cart.    s( 6) = (  0.0000000 -1.0000000  0.0000000 )
                  ( -1.0000000  0.0000000  0.0000000 )
                  (  0.0000000  0.0000000 -1.0000000 )


      isym =  7      90 deg rotation - cart. axis [0,0,-1]       

 cryst.   s( 7) = (     1         -1          1      )
                  (     1          0          0      )
                  (     0          1          0      )

 cart.    s( 7) = (  0.0000000  1.0000000  0.0000000 )
                  ( -1.0000000  0.0000000  0.0000000 )
                  (  0.0000000  0.0000000  1.0000000 )


      isym =  8      90 deg rotation - cart. axis [0,0,1]        

 cryst.   s( 8) = (     0          1          0      )
                  (     0          0          1      )
                  (     1         -1          1      )

 cart.    s( 8) = (  0.0000000 -1.0000000  0.0000000 )
                  (  1.0000000  0.0000000  0.0000000 )
                  (  0.0000000  0.0000000  1.0000000 )


      isym =  9     180 deg rotation - cart. axis [1,0,1]        

 cryst.   s( 9) = (     1         -1          1      )
                  (     0         -1          0      )
                  (     0          0         -1      )

 cart.    s( 9) = (  0.0000000  0.0000000  1.0000000 )
                  (  0.0000000 -1.0000000  0.0000000 )
                  (  1.0000000  0.0000000  0.0000000 )


      isym = 10     180 deg rotation - cart. axis [-1,0,1]       

 cryst.   s(10) = (    -1          0          0      )
                  (     0          0          1      )
                  (     0          1          0      )

 cart.    s(10) = (  0.0000000  0.0000000 -1.0000000 )
                  (  0.0000000 -1.0000000  0.0000000 )
                  ( -1.0000000  0.0000000  0.0000000 )


      isym = 11      90 deg rotation - cart. axis [0,1,0]        

 cryst.   s(11) = (     0          0         -1      )
                  (     1          0          0      )
                  (     1         -1          1      )

 cart.    s(11) = (  0.0000000  0.0000000  1.0000000 )
                  (  0.0000000  1.0000000  0.0000000 )
                  ( -1.0000000  0.0000000  0.0000000 )


      isym = 12      90 deg rotation - cart. axis [0,-1,0]       

 cryst.   s(12) = (     0          1          0      )
                  (    -1          1         -1      )
                  (    -1          0          0      )

 cart.    s(12) = (  0.0000000  0.0000000 -1.0000000 )
                  (  0.0000000  1.0000000  0.0000000 )
                  (  1.0000000  0.0000000  0.0000000 )


      isym = 13     180 deg rotation - cart. axis [0,1,1]        

 cryst.   s(13) = (     0          1          0      )
                  (     1          0          0      )
                  (     0          0         -1      )

 cart.    s(13) = ( -1.0000000  0.0000000  0.0000000 )
                  (  0.0000000  0.0000000  1.0000000 )
                  (  0.0000000  1.0000000  0.0000000 )


      isym = 14     180 deg rotation - cart. axis [0,1,-1]       

 cryst.   s(14) = (    -1          0          0      )
                  (     0         -1          0      )
                  (     1         -1          1      )

 cart.    s(14) = ( -1.0000000  0.0000000  0.0000000 )
                  (  0.0000000  0.0000000 -1.0000000 )
                  (  0.0000000 -1.0000000  0.0000000 )


      isym = 15      90 deg rotation - cart. axis [-1,0,0]       

 cryst.   s(15) = (     0          0         -1      )
                  (    -1          1         -1      )
                  (     0          1          0      )

 cart.    s(15) = (  1.0000000  0.0000000  0.0000000 )
                  (  0.0000000  0.0000000  1.0000000 )
                  (  0.0000000 -1.0000000  0.0000000 )


      isym = 16      90 deg rotation - cart. axis [1,0,0]        

 cryst.   s(16) = (     1         -1          1      )
                  (     0          0          1      )
                  (    -1          0          0      )

 cart.    s(16) = (  1.0000000  0.0000000  0.0000000 )
                  (  0.0000000  0.0000000 -1.0000000 )
                  (  0.0000000  1.0000000  0.0000000 )


      isym = 17     120 deg rotation - cart. axis [-1,-1,-1]     

 cryst.   s(17) = (     1          0          0      )
                  (     0          0         -1      )
                  (    -1          1         -1      )

 cart.    s(17) = (  0.0000000  1.0000000  0.0000000 )
                  (  0.0000000  0.0000000  1.0000000 )
                  (  1.0000000  0.0000000  0.0000000 )


      isym = 18     120 deg rotation - cart. axis [-1,1,1]       

 cryst.   s(18) = (    -1          1         -1      )
                  (     0          1          0      )
                  (     1          0          0      )

 cart.    s(18) = (  0.0000000 -1.0000000  0.0000000 )
                  (  0.0000000  0.0000000  1.0000000 )
                  ( -1.0000000  0.0000000  0.0000000 )


      isym = 19     120 deg rotation - cart. axis [1,1,-1]       

 cryst.   s(19) = (     0         -1          0      )
                  (     1         -1          1      )
                  (     0          0          1      )

 cart.    s(19) = (  0.0000000  1.0000000  0.0000000 )
                  (  0.0000000  0.0000000 -1.0000000 )
                  ( -1.0000000  0.0000000  0.0000000 )


      isym = 20     120 deg rotation - cart. axis [1,-1,1]       

 cryst.   s(20) = (     0          0          1      )
                  (    -1          0          0      )
                  (     0         -1          0      )

 cart.    s(20) = (  0.0000000 -1.0000000  0.0000000 )
                  (  0.0000000  0.0000000 -1.0000000 )
                  (  1.0000000  0.0000000  0.0000000 )


      isym = 21     120 deg rotation - cart. axis [1,1,1]        

 cryst.   s(21) = (     1          0          0      )
                  (     1         -1          1      )
                  (     0         -1          0      )

 cart.    s(21) = (  0.0000000  0.0000000  1.0000000 )
                  (  1.0000000  0.0000000  0.0000000 )
                  (  0.0000000  1.0000000  0.0000000 )


      isym = 22     120 deg rotation - cart. axis [-1,1,-1]      

 cryst.   s(22) = (     0         -1          0      )
                  (     0          0         -1      )
                  (     1          0          0      )

 cart.    s(22) = (  0.0000000  0.0000000  1.0000000 )
                  ( -1.0000000  0.0000000  0.0000000 )
                  (  0.0000000 -1.0000000  0.0000000 )


      isym = 23     120 deg rotation - cart. axis [1,-1,-1]      

 cryst.   s(23) = (     0          0          1      )
                  (     0          1          0      )
                  (    -1          1         -1      )

 cart.    s(23) = (  0.0000000  0.0000000 -1.0000000 )
                  ( -1.0000000  0.0000000  0.0000000 )
                  (  0.0000000  1.0000000  0.0000000 )


      isym = 24     120 deg rotation - cart. axis [-1,-1,1]      

 cryst.   s(24) = (    -1          1         -1      )
                  (    -1          0          0      )
                  (     0          0          1      )

 cart.    s(24) = (  0.0000000  0.0000000 -1.0000000 )
                  (  1.0000000  0.0000000  0.0000000 )
                  (  0.0000000 -1.0000000  0.0000000 )


      isym = 25     inversion                                    

 cryst.   s(25) = (    -1          0          0      )
                  (     0         -1          0      )
                  (     0          0         -1      )

 cart.    s(25) = ( -1.0000000  0.0000000  0.0000000 )
                  (  0.0000000 -1.0000000  0.0000000 )
                  (  0.0000000  0.0000000 -1.0000000 )


      isym = 26     inv. 180 deg rotation - cart. axis [0,0,1]   

 cryst.   s(26) = (     0          0         -1      )
                  (    -1          1         -1      )
                  (    -1          0          0      )

 cart.    s(26) = (  1.0000000  0.0000000  0.0000000 )
                  (  0.0000000  1.0000000  0.0000000 )
                  (  0.0000000  0.0000000 -1.0000000 )


      isym = 27     inv. 180 deg rotation - cart. axis [0,1,0]   

 cryst.   s(27) = (     1         -1          1      )
                  (     0          0          1      )
                  (     0          1          0      )

 cart.    s(27) = (  1.0000000  0.0000000  0.0000000 )
                  (  0.0000000 -1.0000000  0.0000000 )
                  (  0.0000000  0.0000000  1.0000000 )


      isym = 28     inv. 180 deg rotation - cart. axis [1,0,0]   

 cryst.   s(28) = (     0          1          0      )
                  (     1          0          0      )
                  (     1         -1          1      )

 cart.    s(28) = ( -1.0000000  0.0000000  0.0000000 )
                  (  0.0000000  1.0000000  0.0000000 )
                  (  0.0000000  0.0000000  1.0000000 )


      isym = 29     inv. 180 deg rotation - cart. axis [1,1,0]   

 cryst.   s(29) = (     0          0          1      )
                  (     0          1          0      )
                  (     1          0          0      )

 cart.    s(29) = (  0.0000000 -1.0000000  0.0000000 )
                  ( -1.0000000  0.0000000  0.0000000 )
                  (  0.0000000  0.0000000  1.0000000 )


      isym = 30     inv. 180 deg rotation - cart. axis [1,-1,0]  

 cryst.   s(30) = (     1          0          0      )
                  (     1         -1          1      )
                  (     0          0          1      )

 cart.    s(30) = (  0.0000000  1.0000000  0.0000000 )
                  (  1.0000000  0.0000000  0.0000000 )
                  (  0.0000000  0.0000000  1.0000000 )


      isym = 31     inv.  90 deg rotation - cart. axis [0,0,-1]  

 cryst.   s(31) = (    -1          1         -1      )
                  (    -1          0          0      )
                  (     0         -1          0      )

 cart.    s(31) = (  0.0000000 -1.0000000  0.0000000 )
                  (  1.0000000  0.0000000  0.0000000 )
                  (  0.0000000  0.0000000 -1.0000000 )


      isym = 32     inv.  90 deg rotation - cart. axis [0,0,1]   

 cryst.   s(32) = (     0         -1          0      )
                  (     0          0         -1      )
                  (    -1          1         -1      )

 cart.    s(32) = (  0.0000000  1.0000000  0.0000000 )
                  ( -1.0000000  0.0000000  0.0000000 )
                  (  0.0000000  0.0000000 -1.0000000 )


      isym = 33     inv. 180 deg rotation - cart. axis [1,0,1]   

 cryst.   s(33) = (    -1          1         -1      )
                  (     0          1          0      )
                  (     0          0          1      )

 cart.    s(33) = (  0.0000000  0.0000000 -1.0000000 )
                  (  0.0000000  1.0000000  0.0000000 )
                  ( -1.0000000  0.0000000  0.0000000 )


      isym = 34     inv. 180 deg rotation - cart. axis [-1,0,1]  

 cryst.   s(34) = (     1          0          0      )
                  (     0          0         -1      )
                  (     0         -1          0      )

 cart.    s(34) = (  0.0000000  0.0000000  1.0000000 )
                  (  0.0000000  1.0000000  0.0000000 )
                  (  1.0000000  0.0000000  0.0000000 )


      isym = 35     inv.  90 deg rotation - cart. axis [0,1,0]   

 cryst.   s(35) = (     0          0          1      )
                  (    -1          0          0      )
                  (    -1          1         -1      )

 cart.    s(35) = (  0.0000000  0.0000000 -1.0000000 )
                  (  0.0000000 -1.0000000  0.0000000 )
                  (  1.0000000  0.0000000  0.0000000 )


      isym = 36     inv.  90 deg rotation - cart. axis [0,-1,0]  

 cryst.   s(36) = (     0         -1          0      )
                  (     1         -1          1      )
                  (     1          0          0      )

 cart.    s(36) = (  0.0000000  0.0000000  1.0000000 )
                  (  0.0000000 -1.0000000  0.0000000 )
                  ( -1.0000000  0.0000000  0.0000000 )


      isym = 37     inv. 180 deg rotation - cart. axis [0,1,1]   

 cryst.   s(37) = (     0         -1          0      )
                  (    -1          0          0      )
                  (     0          0          1      )

 cart.    s(37) = (  1.0000000  0.0000000  0.0000000 )
                  (  0.0000000  0.0000000 -1.0000000 )
                  (  0.0000000 -1.0000000  0.0000000 )


      isym = 38     inv. 180 deg rotation - cart. axis [0,1,-1]  

 cryst.   s(38) = (     1          0          0      )
                  (     0          1          0      )
                  (    -1          1         -1      )

 cart.    s(38) = (  1.0000000  0.0000000  0.0000000 )
                  (  0.0000000  0.0000000  1.0000000 )
                  (  0.0000000  1.0000000  0.0000000 )


      isym = 39     inv.  90 deg rotation - cart. axis [-1,0,0]  

 cryst.   s(39) = (     0          0          1      )
                  (     1         -1          1      )
                  (     0         -1          0      )

 cart.    s(39) = ( -1.0000000  0.0000000  0.0000000 )
                  (  0.0000000  0.0000000 -1.0000000 )
                  (  0.0000000  1.0000000  0.0000000 )


      isym = 40     inv.  90 deg rotation - cart. axis [1,0,0]   

 cryst.   s(40) = (    -1          1         -1      )
                  (     0          0         -1      )
                  (     1          0          0      )

 cart.    s(40) = ( -1.0000000  0.0000000  0.0000000 )
                  (  0.0000000  0.0000000  1.0000000 )
                  (  0.0000000 -1.0000000  0.0000000 )


      isym = 41     inv. 120 deg rotation - cart. axis [-1,-1,-1]

 cryst.   s(41) = (    -1          0          0      )
                  (     0          0          1      )
                  (     1         -1          1      )

 cart.    s(41) = (  0.0000000 -1.0000000  0.0000000 )
                  (  0.0000000  0.0000000 -1.0000000 )
                  ( -1.0000000  0.0000000  0.0000000 )


      isym = 42     inv. 120 deg rotation - cart. axis [-1,1,1]  

 cryst.   s(42) = (     1         -1          1      )
                  (     0         -1          0      )
                  (    -1          0          0      )

 cart.    s(42) = (  0.0000000  1.0000000  0.0000000 )
                  (  0.0000000  0.0000000 -1.0000000 )
                  (  1.0000000  0.0000000  0.0000000 )


      isym = 43     inv. 120 deg rotation - cart. axis [1,1,-1]  

 cryst.   s(43) = (     0          1          0      )
                  (    -1          1         -1      )
                  (     0          0         -1      )

 cart.    s(43) = (  0.0000000 -1.0000000  0.0000000 )
                  (  0.0000000  0.0000000  1.0000000 )
                  (  1.0000000  0.0000000  0.0000000 )


      isym = 44     inv. 120 deg rotation - cart. axis [1,-1,1]  

 cryst.   s(44) = (     0          0         -1      )
                  (     1          0          0      )
                  (     0          1          0      )

 cart.    s(44) = (  0.0000000  1.0000000  0.0000000 )
                  (  0.0000000  0.0000000  1.0000000 )
                  ( -1.0000000  0.0000000  0.0000000 )


      isym = 45     inv. 120 deg rotation - cart. axis [1,1,1]   

 cryst.   s(45) = (    -1          0          0      )
                  (    -1          1         -1      )
                  (     0          1          0      )

 cart.    s(45) = (  0.0000000  0.0000000 -1.0000000 )
                  ( -1.0000000  0.0000000  0.0000000 )
                  (  0.0000000 -1.0000000  0.0000000 )


      isym = 46     inv. 120 deg rotation - cart. axis [-1,1,-1] 

 cryst.   s(46) = (     0          1          0      )
                  (     0          0          1      )
                  (    -1          0          0      )

 cart.    s(46) = (  0.0000000  0.0000000 -1.0000000 )
                  (  1.0000000  0.0000000  0.0000000 )
                  (  0.0000000  1.0000000  0.0000000 )


      isym = 47     inv. 120 deg rotation - cart. axis [1,-1,-1] 

 cryst.   s(47) = (     0          0         -1      )
                  (     0         -1          0      )
                  (     1         -1          1      )

 cart.    s(47) = (  0.0000000  0.0000000  1.0000000 )
                  (  1.0000000  0.0000000  0.0000000 )
                  (  0.0000000 -1.0000000  0.0000000 )


      isym = 48     inv. 120 deg rotation - cart. axis [-1,-1,1] 

 cryst.   s(48) = (     1         -1          1      )
                  (     1          0          0      )
                  (     0          0         -1      )

 cart.    s(48) = (  0.0000000  0.0000000  1.0000000 )
                  ( -1.0000000  0.0000000  0.0000000 )
                  (  0.0000000  1.0000000  0.0000000 )


     point group O_h (m-3m) 
     there are 10 classes
     the character table:

       E     8C3   3C2   6C4   6C2'  i     8S6   3s_h  6S4   6s_d 
A_1g   1.00  1.00  1.00  1.00  1.00  1.00  1.00  1.00  1.00  1.00
A_2g   1.00  1.00  1.00 -1.00 -1.00  1.00  1.00  1.00 -1.00 -1.00
E_g    2.00 -1.00  2.00  0.00  0.00  2.00 -1.00  2.00  0.00  0.00
T_1g   3.00  0.00 -1.00  1.00 -1.00  3.00  0.00 -1.00  1.00 -1.00
T_2g   3.00  0.00 -1.00 -1.00  1.00  3.00  0.00 -1.00 -1.00  1.00
A_1u   1.00  1.00  1.00  1.00  1.00 -1.00 -1.00 -1.00 -1.00 -1.00
A_2u   1.00  1.00  1.00 -1.00 -1.00 -1.00 -1.00 -1.00  1.00  1.00
E_u    2.00 -1.00  2.00  0.00  0.00 -2.00  1.00 -2.00  0.00  0.00
T_1u   3.00  0.00 -1.00  1.00 -1.00 -3.00  0.00  1.00 -1.00  1.00
T_2u   3.00  0.00 -1.00 -1.00  1.00 -3.00  0.00  1.00  1.00 -1.00

     the symmetry operations in each class and the name of the first element:

     E        1
          identity                                               
     8C3     17   19   20   18   24   21   22   23
          120 deg rotation - cart. axis [-1,-1,-1]               
     3C2      2    4    3
          180 deg rotation - cart. axis [0,0,1]                  
     6C4      7    8   15   16   12   11
           90 deg rotation - cart. axis [0,0,-1]                 
     6C2'     5    6   14   13   10    9
          180 deg rotation - cart. axis [1,1,0]                  
     i       25
          inversion                                              
     8S6     41   43   44   42   48   45   46   47
          inv. 120 deg rotation - cart. axis [-1,-1,-1]          
     3s_h    26   28   27
          inv. 180 deg rotation - cart. axis [0,0,1]             
     6S4     31   32   39   40   36   35
          inv.  90 deg rotation - cart. axis [0,0,-1]            
     6s_d    29   30   38   37   34   33
          inv. 180 deg rotation - cart. axis [1,1,0]             

   Cartesian axes

     site n.     atom                  positions (alat units)
         1        Fe     tau(   1) = (   0.0000000   0.0000000   0.0000000  )

   Crystallographic axes

     site n.     atom                  positions (cryst. coord.)
         1        Fe     tau(   1) = (  0.0000000  0.0000000  0.0000000  )

     number of k points=   145  Marzari-Vanderbilt smearing, width (Ry)=  0.0100
                       cart. coord. in units 2pi/alat
        k(    1) = (   0.0000000   0.0000000   0.0000000), wk =   0.0004883
        k(    2) = (   0.0000000  -0.0625000   0.0625000), wk =   0.0058594
        k(    3) = (   0.0000000  -0.1250000   0.1250000), wk =   0.0058594
        k(    4) = (   0.0000000  -0.1875000   0.1875000), wk =   0.0058594
        k(    5) = (   0.0000000  -0.2500000   0.2500000), wk =   0.0058594
        k(    6) = (   0.0000000  -0.3125000   0.3125000), wk =   0.0058594
        k(    7) = (   0.0000000  -0.3750000   0.3750000), wk =   0.0058594
        k(    8) = (   0.0000000  -0.4375000   0.4375000), wk =   0.0058594
        k(    9) = (   0.0000000   0.5000000  -0.5000000), wk =   0.0029297
        k(   10) = (  -0.0625000  -0.0625000   0.1250000), wk =   0.0117188
        k(   11) = (  -0.0625000  -0.1250000   0.1875000), wk =   0.0234375
        k(   12) = (  -0.0625000  -0.1875000   0.2500000), wk =   0.0234375
        k(   13) = (  -0.0625000  -0.2500000   0.3125000), wk =   0.0234375
        k(   14) = (  -0.0625000  -0.3125000   0.3750000), wk =   0.0234375
        k(   15) = (  -0.0625000  -0.3750000   0.4375000), wk =   0.0234375
        k(   16) = (  -0.0625000   0.5625000  -0.5000000), wk =   0.0234375
        k(   17) = (  -0.1250000  -0.1250000   0.2500000), wk =   0.0117188
        k(   18) = (  -0.1250000  -0.1875000   0.3125000), wk =   0.0234375
        k(   19) = (  -0.1250000  -0.2500000   0.3750000), wk =   0.0234375
        k(   20) = (  -0.1250000  -0.3125000   0.4375000), wk =   0.0234375
        k(   21) = (  -0.1250000   0.6250000  -0.5000000), wk =   0.0234375
        k(   22) = (  -0.1250000   0.5625000  -0.4375000), wk =   0.0117188
        k(   23) = (  -0.1875000  -0.1875000   0.3750000), wk =   0.0117188
        k(   24) = (  -0.1875000  -0.2500000   0.4375000), wk =   0.0234375
        k(   25) = (  -0.1875000   0.6875000  -0.5000000), wk =   0.0234375
        k(   26) = (  -0.1875000   0.6250000  -0.4375000), wk =   0.0234375
        k(   27) = (  -0.2500000   0.7500000  -0.5000000), wk =   0.0117188
        k(   28) = (  -0.2500000   0.6875000  -0.4375000), wk =   0.0234375
        k(   29) = (  -0.2500000   0.6250000  -0.3750000), wk =   0.0117188
        k(   30) = (  -0.3125000   0.6875000  -0.3750000), wk =   0.0117188
        k(   31) = (   0.0000000   0.0000000   0.1250000), wk =   0.0029297
        k(   32) = (   0.0000000  -0.0625000   0.1875000), wk =   0.0117188
        k(   33) = (   0.0000000  -0.1250000   0.2500000), wk =   0.0117188
        k(   34) = (   0.0000000  -0.1875000   0.3125000), wk =   0.0117188
        k(   35) = (   0.0000000  -0.2500000   0.3750000), wk =   0.0117188
        k(   36) = (   0.0000000  -0.3125000   0.4375000), wk =   0.0117188
        k(   37) = (   0.0000000  -0.3750000   0.5000000), wk =   0.0117188
        k(   38) = (   0.0000000   0.5625000  -0.4375000), wk =   0.0058594
        k(   39) = (  -0.0625000  -0.0625000   0.2500000), wk =   0.0117188
        k(   40) = (  -0.0625000  -0.1250000   0.3125000), wk =   0.0234375
        k(   41) = (  -0.0625000  -0.1875000   0.3750000), wk =   0.0234375
        k(   42) = (  -0.0625000  -0.2500000   0.4375000), wk =   0.0234375
        k(   43) = (  -0.0625000  -0.3125000   0.5000000), wk =   0.0234375
        k(   44) = (  -0.0625000   0.6250000  -0.4375000), wk =   0.0234375
        k(   45) = (  -0.1250000   0.1250000   0.1250000), wk =   0.0039062
        k(   46) = (  -0.1250000  -0.1250000   0.3750000), wk =   0.0117188
        k(   47) = (  -0.1250000  -0.1875000   0.4375000), wk =   0.0234375
        k(   48) = (  -0.1250000  -0.2500000   0.5000000), wk =   0.0234375
        k(   49) = (  -0.1250000   0.6875000  -0.4375000), wk =   0.0234375
        k(   50) = (  -0.1250000   0.6250000  -0.3750000), wk =   0.0117188
        k(   51) = (  -0.1875000   0.1875000   0.1250000), wk =   0.0117188
        k(   52) = (  -0.1875000  -0.1875000   0.5000000), wk =   0.0117188
        k(   53) = (  -0.1875000   0.7500000  -0.4375000), wk =   0.0234375
        k(   54) = (  -0.1875000   0.6875000  -0.3750000), wk =   0.0234375
        k(   55) = (  -0.2500000   0.2500000   0.1250000), wk =   0.0117188
        k(   56) = (  -0.2500000   0.1875000   0.1875000), wk =   0.0117188
        k(   57) = (  -0.2500000   0.7500000  -0.3750000), wk =   0.0117188
        k(   58) = (  -0.2500000   0.6875000  -0.3125000), wk =   0.0117188
        k(   59) = (  -0.3125000   0.3125000   0.1250000), wk =   0.0117188
        k(   60) = (  -0.3125000   0.2500000   0.1875000), wk =   0.0234375
        k(   61) = (  -0.3750000   0.3750000   0.1250000), wk =   0.0117188
        k(   62) = (  -0.3750000   0.3125000   0.1875000), wk =   0.0234375
        k(   63) = (  -0.3750000   0.2500000   0.2500000), wk =   0.0117188
        k(   64) = (   0.5625000  -0.5625000   0.1250000), wk =   0.0117188
        k(   65) = (   0.5625000  -0.6250000   0.1875000), wk =   0.0234375
        k(   66) = (   0.5625000  -0.6875000   0.2500000), wk =   0.0234375
        k(   67) = (   0.5000000  -0.5000000   0.1250000), wk =   0.0058594
        k(   68) = (   0.5000000  -0.5625000   0.1875000), wk =   0.0234375
        k(   69) = (   0.5000000  -0.6250000   0.2500000), wk =   0.0234375
        k(   70) = (   0.5000000  -0.6875000   0.3125000), wk =   0.0117188
        k(   71) = (   0.4375000  -0.5625000   0.2500000), wk =   0.0117188
        k(   72) = (   0.4375000  -0.6250000   0.3125000), wk =   0.0234375
        k(   73) = (   0.3750000  -0.6250000   0.3750000), wk =   0.0039062
        k(   74) = (   0.0000000   0.0000000   0.2500000), wk =   0.0029297
        k(   75) = (   0.0000000  -0.0625000   0.3125000), wk =   0.0117188
        k(   76) = (   0.0000000  -0.1250000   0.3750000), wk =   0.0117188
        k(   77) = (   0.0000000  -0.1875000   0.4375000), wk =   0.0117188
        k(   78) = (   0.0000000  -0.2500000   0.5000000), wk =   0.0117188
        k(   79) = (   0.0000000  -0.3125000   0.5625000), wk =   0.0117188
        k(   80) = (   0.0000000   0.6250000  -0.3750000), wk =   0.0058594
        k(   81) = (  -0.0625000  -0.0625000   0.3750000), wk =   0.0117188
        k(   82) = (  -0.0625000  -0.1250000   0.4375000), wk =   0.0234375
        k(   83) = (  -0.0625000  -0.1875000   0.5000000), wk =   0.0234375
        k(   84) = (  -0.0625000  -0.2500000   0.5625000), wk =   0.0234375
        k(   85) = (  -0.0625000   0.6875000  -0.3750000), wk =   0.0234375
        k(   86) = (  -0.1250000  -0.1250000   0.5000000), wk =   0.0117188
        k(   87) = (  -0.1250000  -0.1875000   0.5625000), wk =   0.0234375
        k(   88) = (  -0.1250000   0.7500000  -0.3750000), wk =   0.0234375
        k(   89) = (  -0.1250000   0.6875000  -0.3125000), wk =   0.0117188
        k(   90) = (  -0.1875000   0.8125000  -0.3750000), wk =   0.0117188
        k(   91) = (  -0.1875000   0.7500000  -0.3125000), wk =   0.0234375
        k(   92) = (  -0.2500000   0.2500000   0.2500000), wk =   0.0039062
        k(   93) = (  -0.2500000   0.7500000  -0.2500000), wk =   0.0039062
        k(   94) = (  -0.3125000   0.3125000   0.2500000), wk =   0.0117188
        k(   95) = (   0.6250000  -0.6250000   0.2500000), wk =   0.0117188
        k(   96) = (   0.6250000  -0.6875000   0.3125000), wk =   0.0117188
        k(   97) = (   0.5625000  -0.5625000   0.2500000), wk =   0.0117188
        k(   98) = (   0.5625000  -0.6250000   0.3125000), wk =   0.0234375
        k(   99) = (   0.5000000  -0.5000000   0.2500000), wk =   0.0058594
        k(  100) = (   0.5000000  -0.5625000   0.3125000), wk =   0.0234375
        k(  101) = (   0.5000000  -0.6250000   0.3750000), wk =   0.0117188
        k(  102) = (   0.4375000  -0.5625000   0.3750000), wk =   0.0117188
        k(  103) = (   0.0000000   0.0000000   0.3750000), wk =   0.0029297
        k(  104) = (   0.0000000  -0.0625000   0.4375000), wk =   0.0117188
        k(  105) = (   0.0000000  -0.1250000   0.5000000), wk =   0.0117188
        k(  106) = (   0.0000000  -0.1875000   0.5625000), wk =   0.0117188
        k(  107) = (   0.0000000  -0.2500000   0.6250000), wk =   0.0117188
        k(  108) = (   0.0000000   0.6875000  -0.3125000), wk =   0.0058594
        k(  109) = (  -0.0625000  -0.0625000   0.5000000), wk =   0.0117188
        k(  110) = (  -0.0625000  -0.1250000   0.5625000), wk =   0.0234375
        k(  111) = (  -0.0625000  -0.1875000   0.6250000), wk =   0.0234375
        k(  112) = (  -0.0625000   0.7500000  -0.3125000), wk =   0.0234375
        k(  113) = (  -0.1250000  -0.1250000   0.6250000), wk =   0.0117188
        k(  114) = (  -0.1250000   0.8125000  -0.3125000), wk =   0.0234375
        k(  115) = (  -0.1250000   0.7500000  -0.2500000), wk =   0.0117188
        k(  116) = (  -0.1875000   0.8125000  -0.2500000), wk =   0.0117188
        k(  117) = (   0.6250000  -0.6250000   0.3750000), wk =   0.0039062
        k(  118) = (   0.5625000  -0.5625000   0.3750000), wk =   0.0117188
        k(  119) = (   0.5000000  -0.5000000   0.3750000), wk =   0.0058594
        k(  120) = (   0.5000000  -0.5625000   0.4375000), wk =   0.0117188
        k(  121) = (   0.0000000   0.0000000   0.5000000), wk =   0.0029297
        k(  122) = (   0.0000000  -0.0625000   0.5625000), wk =   0.0117188
        k(  123) = (   0.0000000  -0.1250000   0.6250000), wk =   0.0117188
        k(  124) = (   0.0000000  -0.1875000   0.6875000), wk =   0.0117188
        k(  125) = (   0.0000000   0.7500000  -0.2500000), wk =   0.0058594
        k(  126) = (  -0.0625000  -0.0625000   0.6250000), wk =   0.0117188
        k(  127) = (  -0.0625000  -0.1250000   0.6875000), wk =   0.0234375
        k(  128) = (  -0.0625000   0.8125000  -0.2500000), wk =   0.0234375
        k(  129) = (  -0.1250000   0.8750000  -0.2500000), wk =   0.0117188
        k(  130) = (  -0.1250000   0.8125000  -0.1875000), wk =   0.0117188
        k(  131) = (   0.5000000  -0.5000000   0.5000000), wk =   0.0009766
        k(  132) = (   0.0000000   0.0000000   0.6250000), wk =   0.0029297
        k(  133) = (   0.0000000  -0.0625000   0.6875000), wk =   0.0117188
        k(  134) = (   0.0000000  -0.1250000   0.7500000), wk =   0.0117188
        k(  135) = (   0.0000000   0.8125000  -0.1875000), wk =   0.0058594
        k(  136) = (  -0.0625000  -0.0625000   0.7500000), wk =   0.0117188
        k(  137) = (  -0.0625000   0.8750000  -0.1875000), wk =   0.0234375
        k(  138) = (  -0.1250000   0.8750000  -0.1250000), wk =   0.0039062
        k(  139) = (   0.0000000   0.0000000   0.7500000), wk =   0.0029297
        k(  140) = (   0.0000000  -0.0625000   0.8125000), wk =   0.0117188
        k(  141) = (   0.0000000   0.8750000  -0.1250000), wk =   0.0058594
        k(  142) = (  -0.0625000   0.9375000  -0.1250000), wk =   0.0117188
        k(  143) = (   0.0000000   0.0000000   0.8750000), wk =   0.0029297
        k(  144) = (   0.0000000   0.9375000  -0.0625000), wk =   0.0058594
        k(  145) = (   0.0000000   0.0000000  -1.0000000), wk =   0.0004883

                       cryst. coord.
        k(    1) = (   0.0000000   0.0000000   0.0000000), wk =   0.0004883
        k(    2) = (   0.0000000   0.0000000   0.0625000), wk =   0.0058594
        k(    3) = (   0.0000000   0.0000000   0.1250000), wk =   0.0058594
        k(    4) = (   0.0000000   0.0000000   0.1875000), wk =   0.0058594
        k(    5) = (   0.0000000   0.0000000   0.2500000), wk =   0.0058594
        k(    6) = (   0.0000000   0.0000000   0.3125000), wk =   0.0058594
        k(    7) = (   0.0000000   0.0000000   0.3750000), wk =   0.0058594
        k(    8) = (   0.0000000   0.0000000   0.4375000), wk =   0.0058594
        k(    9) = (   0.0000000   0.0000000  -0.5000000), wk =   0.0029297
        k(   10) = (   0.0000000   0.0625000   0.1250000), wk =   0.0117188
        k(   11) = (   0.0000000   0.0625000   0.1875000), wk =   0.0234375
        k(   12) = (   0.0000000   0.0625000   0.2500000), wk =   0.0234375
        k(   13) = (   0.0000000   0.0625000   0.3125000), wk =   0.0234375
        k(   14) = (   0.0000000   0.0625000   0.3750000), wk =   0.0234375
        k(   15) = (   0.0000000   0.0625000   0.4375000), wk =   0.0234375
        k(   16) = (   0.0000000   0.0625000  -0.5000000), wk =   0.0234375
        k(   17) = (   0.0000000   0.1250000   0.2500000), wk =   0.0117188
        k(   18) = (   0.0000000   0.1250000   0.3125000), wk =   0.0234375
        k(   19) = (   0.0000000   0.1250000   0.3750000), wk =   0.0234375
        k(   20) = (   0.0000000   0.1250000   0.4375000), wk =   0.0234375
        k(   21) = (   0.0000000   0.1250000  -0.5000000), wk =   0.0234375
        k(   22) = (   0.0000000   0.1250000  -0.4375000), wk =   0.0117188
        k(   23) = (   0.0000000   0.1875000   0.3750000), wk =   0.0117188
        k(   24) = (   0.0000000   0.1875000   0.4375000), wk =   0.0234375
        k(   25) = (   0.0000000   0.1875000  -0.5000000), wk =   0.0234375
        k(   26) = (   0.0000000   0.1875000  -0.4375000), wk =   0.0234375
        k(   27) = (   0.0000000   0.2500000  -0.5000000), wk =   0.0117188
        k(   28) = (   0.0000000   0.2500000  -0.4375000), wk =   0.0234375
        k(   29) = (   0.0000000   0.2500000  -0.3750000), wk =   0.0117188
        k(   30) = (   0.0000000   0.3125000  -0.3750000), wk =   0.0117188
        k(   31) = (   0.0625000   0.0625000   0.0625000), wk =   0.0029297
        k(   32) = (   0.0625000   0.0625000   0.1250000), wk =   0.0117188
        k(   33) = (   0.0625000   0.0625000   0.1875000), wk =   0.0117188
        k(   34) = (   0.0625000   0.0625000   0.2500000), wk =   0.0117188
        k(   35) = (   0.0625000   0.0625000   0.3125000), wk =   0.0117188
        k(   36) = (   0.0625000   0.0625000   0.3750000), wk =   0.0117188
        k(   37) = (   0.0625000   0.0625000   0.4375000), wk =   0.0117188
        k(   38) = (   0.0625000   0.0625000  -0.5000000), wk =   0.0058594
        k(   39) = (   0.0625000   0.1250000   0.1875000), wk =   0.0117188
        k(   40) = (   0.0625000   0.1250000   0.2500000), wk =   0.0234375
        k(   41) = (   0.0625000   0.1250000   0.3125000), wk =   0.0234375
        k(   42) = (   0.0625000   0.1250000   0.3750000), wk =   0.0234375
        k(   43) = (   0.0625000   0.1250000   0.4375000), wk =   0.0234375
        k(   44) = (   0.0625000   0.1250000  -0.5000000), wk =   0.0234375
        k(   45) = (   0.0625000   0.1875000   0.0625000), wk =   0.0039062
        k(   46) = (   0.0625000   0.1875000   0.3125000), wk =   0.0117188
        k(   47) = (   0.0625000   0.1875000   0.3750000), wk =   0.0234375
        k(   48) = (   0.0625000   0.1875000   0.4375000), wk =   0.0234375
        k(   49) = (   0.0625000   0.1875000  -0.5000000), wk =   0.0234375
        k(   50) = (   0.0625000   0.1875000  -0.4375000), wk =   0.0117188
        k(   51) = (   0.0625000   0.2500000   0.0625000), wk =   0.0117188
        k(   52) = (   0.0625000   0.2500000   0.4375000), wk =   0.0117188
        k(   53) = (   0.0625000   0.2500000  -0.5000000), wk =   0.0234375
        k(   54) = (   0.0625000   0.2500000  -0.4375000), wk =   0.0234375
        k(   55) = (   0.0625000   0.3125000   0.0625000), wk =   0.0117188
        k(   56) = (   0.0625000   0.3125000   0.1250000), wk =   0.0117188
        k(   57) = (   0.0625000   0.3125000  -0.4375000), wk =   0.0117188
        k(   58) = (   0.0625000   0.3125000  -0.3750000), wk =   0.0117188
        k(   59) = (   0.0625000   0.3750000   0.0625000), wk =   0.0117188
        k(   60) = (   0.0625000   0.3750000   0.1250000), wk =   0.0234375
        k(   61) = (   0.0625000   0.4375000   0.0625000), wk =   0.0117188
        k(   62) = (   0.0625000   0.4375000   0.1250000), wk =   0.0234375
        k(   63) = (   0.0625000   0.4375000   0.1875000), wk =   0.0117188
        k(   64) = (   0.0625000  -0.5000000   0.0625000), wk =   0.0117188
        k(   65) = (   0.0625000  -0.5000000   0.1250000), wk =   0.0234375
        k(   66) = (   0.0625000  -0.5000000   0.1875000), wk =   0.0234375
        k(   67) = (   0.0625000  -0.4375000   0.0625000), wk =   0.0058594
        k(   68) = (   0.0625000  -0.4375000   0.1250000), wk =   0.0234375
        k(   69) = (   0.0625000  -0.4375000   0.1875000), wk =   0.0234375
        k(   70) = (   0.0625000  -0.4375000   0.2500000), wk =   0.0117188
        k(   71) = (   0.0625000  -0.3750000   0.1875000), wk =   0.0117188
        k(   72) = (   0.0625000  -0.3750000   0.2500000), wk =   0.0234375
        k(   73) = (   0.0625000  -0.3125000   0.3125000), wk =   0.0039062
        k(   74) = (   0.1250000   0.1250000   0.1250000), wk =   0.0029297
        k(   75) = (   0.1250000   0.1250000   0.1875000), wk =   0.0117188
        k(   76) = (   0.1250000   0.1250000   0.2500000), wk =   0.0117188
        k(   77) = (   0.1250000   0.1250000   0.3125000), wk =   0.0117188
        k(   78) = (   0.1250000   0.1250000   0.3750000), wk =   0.0117188
        k(   79) = (   0.1250000   0.1250000   0.4375000), wk =   0.0117188
        k(   80) = (   0.1250000   0.1250000  -0.5000000), wk =   0.0058594
        k(   81) = (   0.1250000   0.1875000   0.2500000), wk =   0.0117188
        k(   82) = (   0.1250000   0.1875000   0.3125000), wk =   0.0234375
        k(   83) = (   0.1250000   0.1875000   0.3750000), wk =   0.0234375
        k(   84) = (   0.1250000   0.1875000   0.4375000), wk =   0.0234375
        k(   85) = (   0.1250000   0.1875000  -0.5000000), wk =   0.0234375
        k(   86) = (   0.1250000   0.2500000   0.3750000), wk =   0.0117188
        k(   87) = (   0.1250000   0.2500000   0.4375000), wk =   0.0234375
        k(   88) = (   0.1250000   0.2500000  -0.5000000), wk =   0.0234375
        k(   89) = (   0.1250000   0.2500000  -0.4375000), wk =   0.0117188
        k(   90) = (   0.1250000   0.3125000  -0.5000000), wk =   0.0117188
        k(   91) = (   0.1250000   0.3125000  -0.4375000), wk =   0.0234375
        k(   92) = (   0.1250000   0.3750000   0.1250000), wk =   0.0039062
        k(   93) = (   0.1250000   0.3750000  -0.3750000), wk =   0.0039062
        k(   94) = (   0.1250000   0.4375000   0.1250000), wk =   0.0117188
        k(   95) = (   0.1250000  -0.5000000   0.1250000), wk =   0.0117188
        k(   96) = (   0.1250000  -0.5000000   0.1875000), wk =   0.0117188
        k(   97) = (   0.1250000  -0.4375000   0.1250000), wk =   0.0117188
        k(   98) = (   0.1250000  -0.4375000   0.1875000), wk =   0.0234375
        k(   99) = (   0.1250000  -0.3750000   0.1250000), wk =   0.0058594
        k(  100) = (   0.1250000  -0.3750000   0.1875000), wk =   0.0234375
        k(  101) = (   0.1250000  -0.3750000   0.2500000), wk =   0.0117188
        k(  102) = (   0.1250000  -0.3125000   0.2500000), wk =   0.0117188
        k(  103) = (   0.1875000   0.1875000   0.1875000), wk =   0.0029297
        k(  104) = (   0.1875000   0.1875000   0.2500000), wk =   0.0117188
        k(  105) = (   0.1875000   0.1875000   0.3125000), wk =   0.0117188
        k(  106) = (   0.1875000   0.1875000   0.3750000), wk =   0.0117188
        k(  107) = (   0.1875000   0.1875000   0.4375000), wk =   0.0117188
        k(  108) = (   0.1875000   0.1875000  -0.5000000), wk =   0.0058594
        k(  109) = (   0.1875000   0.2500000   0.3125000), wk =   0.0117188
        k(  110) = (   0.1875000   0.2500000   0.3750000), wk =   0.0234375
        k(  111) = (   0.1875000   0.2500000   0.4375000), wk =   0.0234375
        k(  112) = (   0.1875000   0.2500000  -0.5000000), wk =   0.0234375
        k(  113) = (   0.1875000   0.3125000   0.4375000), wk =   0.0117188
        k(  114) = (   0.1875000   0.3125000  -0.5000000), wk =   0.0234375
        k(  115) = (   0.1875000   0.3125000  -0.4375000), wk =   0.0117188
        k(  116) = (   0.1875000   0.3750000  -0.4375000), wk =   0.0117188
        k(  117) = (   0.1875000  -0.4375000   0.1875000), wk =   0.0039062
        k(  118) = (   0.1875000  -0.3750000   0.1875000), wk =   0.0117188
        k(  119) = (   0.1875000  -0.3125000   0.1875000), wk =   0.0058594
        k(  120) = (   0.1875000  -0.3125000   0.2500000), wk =   0.0117188
        k(  121) = (   0.2500000   0.2500000   0.2500000), wk =   0.0029297
        k(  122) = (   0.2500000   0.2500000   0.3125000), wk =   0.0117188
        k(  123) = (   0.2500000   0.2500000   0.3750000), wk =   0.0117188
        k(  124) = (   0.2500000   0.2500000   0.4375000), wk =   0.0117188
        k(  125) = (   0.2500000   0.2500000  -0.5000000), wk =   0.0058594
        k(  126) = (   0.2500000   0.3125000   0.3750000), wk =   0.0117188
        k(  127) = (   0.2500000   0.3125000   0.4375000), wk =   0.0234375
        k(  128) = (   0.2500000   0.3125000  -0.5000000), wk =   0.0234375
        k(  129) = (   0.2500000   0.3750000  -0.5000000), wk =   0.0117188
        k(  130) = (   0.2500000   0.3750000  -0.4375000), wk =   0.0117188
        k(  131) = (   0.2500000  -0.2500000   0.2500000), wk =   0.0009766
        k(  132) = (   0.3125000   0.3125000   0.3125000), wk =   0.0029297
        k(  133) = (   0.3125000   0.3125000   0.3750000), wk =   0.0117188
        k(  134) = (   0.3125000   0.3125000   0.4375000), wk =   0.0117188
        k(  135) = (   0.3125000   0.3125000  -0.5000000), wk =   0.0058594
        k(  136) = (   0.3125000   0.3750000   0.4375000), wk =   0.0117188
        k(  137) = (   0.3125000   0.3750000  -0.5000000), wk =   0.0234375
        k(  138) = (   0.3125000   0.4375000  -0.4375000), wk =   0.0039062
        k(  139) = (   0.3750000   0.3750000   0.3750000), wk =   0.0029297
        k(  140) = (   0.3750000   0.3750000   0.4375000), wk =   0.0117188
        k(  141) = (   0.3750000   0.3750000  -0.5000000), wk =   0.0058594
        k(  142) = (   0.3750000   0.4375000  -0.5000000), wk =   0.0117188
        k(  143) = (   0.4375000   0.4375000   0.4375000), wk =   0.0029297
        k(  144) = (   0.4375000   0.4375000  -0.5000000), wk =   0.0058594
        k(  145) = (  -0.5000000  -0.5000000  -0.5000000), wk =   0.0004883

     Dense  grid:    47597 G-vectors     FFT dimensions: (  50,  50,  50)

     Smooth grid:     9189 G-vectors     FFT dimensions: (  30,  30,  30)

     Dynamical RAM for                 wfc:       0.03 MB

     Dynamical RAM for     wfc (w. buffer):       0.29 MB

     Dynamical RAM for           str. fact:       0.09 MB

     Dynamical RAM for           local pot:       0.00 MB

     Dynamical RAM for          nlocal pot:       0.04 MB

     Dynamical RAM for                qrad:       2.64 MB

     Dynamical RAM for          rho,v,vnew:       0.67 MB

     Dynamical RAM for               rhoin:       0.22 MB

     Dynamical RAM for            rho*nmix:       1.45 MB

     Dynamical RAM for           G-vectors:       0.35 MB

     Dynamical RAM for          h,s,v(r/c):       0.03 MB

     Dynamical RAM for          <psi|beta>:       0.00 MB

     Dynamical RAM for                 psi:       0.05 MB

     Dynamical RAM for                hpsi:       0.05 MB

     Dynamical RAM for                spsi:       0.05 MB

     Dynamical RAM for      wfcinit/wfcrot:       0.06 MB

     Dynamical RAM for           addusdens:       1.14 MB

     Dynamical RAM for          addusforce:       1.11 MB

     Dynamical RAM for         addusstress:       1.18 MB

     Estimated static dynamical RAM per process >       5.15 MB

     Estimated max dynamical RAM per process >       7.78 MB

     Estimated total dynamical RAM >     821.82 MB

     Atomic positions and unit cell read from directory:
     ./tmp/fe_bcc_nm.save/
     Message from routine qexsd_readschema :
     xml data file ./tmp/fe_bcc_nm.save/data-file-schema.xml not found
     Nothing found: using input atomic positions and unit cell


     Check: negative core charge=   -0.000010
     Cannot read rho : file not found

     Initial potential from superposition of free atoms

     starting charge      15.9996, renormalised to      16.0000
     Message from routine qexsd_readschema :
     xml data file ./tmp/fe_bcc_nm.save/data-file-schema.xml not found
     Cannot read wfcs: file not found
     Starting wfcs are   13 randomized atomic wfcs

     total cpu time spent up to now is        1.2 secs

     per-process dynamical memory:   184.8 Mb

     Self-consistent Calculation

     iteration #  1     ecut=    90.00 Ry     beta= 0.20
     Davidson diagonalization with overlap

---- Real-time Memory Report at c_bands before calling an iterative solver
           306 MiB given to the printing process from OS
           180 MiB allocation reported by mallinfo(arena+hblkhd)
        458251 MiB available memory on the node where the printing process lives
------------------
     ethr =  1.00E-05,  avg # of iterations = 10.4

     total cpu time spent up to now is        2.2 secs

     total energy              =    -254.32669210 Ry
     estimated scf accuracy    <       0.03595073 Ry

     iteration #  2     ecut=    90.00 Ry     beta= 0.20
     Davidson diagonalization with overlap

---- Real-time Memory Report at c_bands before calling an iterative solver
           336 MiB given to the printing process from OS
           181 MiB allocation reported by mallinfo(arena+hblkhd)
        458162 MiB available memory on the node where the printing process lives
------------------
     ethr =  2.25E-04,  avg # of iterations =  1.3

     total cpu time spent up to now is        2.8 secs

     total energy              =    -254.32969245 Ry
     estimated scf accuracy    <       0.00252403 Ry

     iteration #  3     ecut=    90.00 Ry     beta= 0.20
     Davidson diagonalization with overlap

---- Real-time Memory Report at c_bands before calling an iterative solver
           336 MiB given to the printing process from OS
           181 MiB allocation reported by mallinfo(arena+hblkhd)
        458161 MiB available memory on the node where the printing process lives
------------------
     ethr =  1.58E-05,  avg # of iterations =  2.0

     total cpu time spent up to now is        3.3 secs

     total energy              =    -254.33017504 Ry
     estimated scf accuracy    <       0.00053867 Ry

     iteration #  4     ecut=    90.00 Ry     beta= 0.20
     Davidson diagonalization with overlap

---- Real-time Memory Report at c_bands before calling an iterative solver
           336 MiB given to the printing process from OS
           181 MiB allocation reported by mallinfo(arena+hblkhd)
        458161 MiB available memory on the node where the printing process lives
------------------
     ethr =  3.37E-06,  avg # of iterations =  1.1

     total cpu time spent up to now is        3.8 secs

     total energy              =    -254.33018679 Ry
     estimated scf accuracy    <       0.00014689 Ry

     iteration #  5     ecut=    90.00 Ry     beta= 0.20
     Davidson diagonalization with overlap

---- Real-time Memory Report at c_bands before calling an iterative solver
           336 MiB given to the printing process from OS
           181 MiB allocation reported by mallinfo(arena+hblkhd)
        458160 MiB available memory on the node where the printing process lives
------------------
     ethr =  9.18E-07,  avg # of iterations =  2.1

     total cpu time spent up to now is        4.5 secs

     total energy              =    -254.33021293 Ry
     estimated scf accuracy    <       0.00000198 Ry

     iteration #  6     ecut=    90.00 Ry     beta= 0.20
     Davidson diagonalization with overlap

---- Real-time Memory Report at c_bands before calling an iterative solver
           336 MiB given to the printing process from OS
           181 MiB allocation reported by mallinfo(arena+hblkhd)
        458158 MiB available memory on the node where the printing process lives
------------------
     ethr =  1.24E-08,  avg # of iterations =  4.5

     total cpu time spent up to now is        5.0 secs

     total energy              =    -254.33021555 Ry
     estimated scf accuracy    <       0.00000239 Ry

     iteration #  7     ecut=    90.00 Ry     beta= 0.20
     Davidson diagonalization with overlap

---- Real-time Memory Report at c_bands before calling an iterative solver
           336 MiB given to the printing process from OS
           181 MiB allocation reported by mallinfo(arena+hblkhd)
        458159 MiB available memory on the node where the printing process lives
------------------
     ethr =  1.24E-08,  avg # of iterations =  2.0

     total cpu time spent up to now is        5.6 secs

     total energy              =    -254.33021653 Ry
     estimated scf accuracy    <       0.00000003 Ry

     iteration #  8     ecut=    90.00 Ry     beta= 0.20
     Davidson diagonalization with overlap

---- Real-time Memory Report at c_bands before calling an iterative solver
           336 MiB given to the printing process from OS
           181 MiB allocation reported by mallinfo(arena+hblkhd)
        458158 MiB available memory on the node where the printing process lives
------------------
     ethr =  1.91E-10,  avg # of iterations =  5.3

     total cpu time spent up to now is        6.2 secs

     total energy              =    -254.33021650 Ry
     estimated scf accuracy    <       0.00000089 Ry

     iteration #  9     ecut=    90.00 Ry     beta= 0.20
     Davidson diagonalization with overlap

---- Real-time Memory Report at c_bands before calling an iterative solver
           336 MiB given to the printing process from OS
           181 MiB allocation reported by mallinfo(arena+hblkhd)
        458158 MiB available memory on the node where the printing process lives
------------------
     ethr =  1.91E-10,  avg # of iterations =  4.5

     total cpu time spent up to now is        6.9 secs

     total energy              =    -254.33021678 Ry
     estimated scf accuracy    <          9.7E-10 Ry

     iteration # 10     ecut=    90.00 Ry     beta= 0.20
     Davidson diagonalization with overlap

---- Real-time Memory Report at c_bands before calling an iterative solver
           336 MiB given to the printing process from OS
           181 MiB allocation reported by mallinfo(arena+hblkhd)
        458158 MiB available memory on the node where the printing process lives
------------------
     ethr =  6.07E-12,  avg # of iterations =  3.0

     total cpu time spent up to now is        7.5 secs

     total energy              =    -254.33021688 Ry
     estimated scf accuracy    <          5.7E-09 Ry

     iteration # 11     ecut=    90.00 Ry     beta= 0.20
     Davidson diagonalization with overlap

---- Real-time Memory Report at c_bands before calling an iterative solver
           336 MiB given to the printing process from OS
           181 MiB allocation reported by mallinfo(arena+hblkhd)
        458158 MiB available memory on the node where the printing process lives
------------------
     ethr =  6.07E-12,  avg # of iterations =  2.1

     total cpu time spent up to now is        8.0 secs

     End of self-consistent calculation

          k = 0.0000 0.0000 0.0000 (  1157 PWs)   bands (ev):

   -69.5781 -35.4138 -35.4138 -35.4138   9.1896  15.9816  15.9816  15.9816
    17.4792  17.4792  41.8584  41.8584

     occupation numbers 
     1.0000   1.0000   1.0000   1.0000   1.0000   1.0000   1.0000   1.0000
     0.6174   0.6174   0.0000   0.0000

          k = 0.0000-0.0625 0.0625 (  1145 PWs)   bands (ev):

   -69.5755 -35.4284 -35.4187 -35.4138   9.3473  15.9362  15.9763  16.0675
    17.4324  17.4828  40.8382  41.6308

     occupation numbers 
     1.0000   1.0000   1.0000   1.0000   1.0000   1.0000   1.0000   1.0000
     0.8594   0.5975   0.0000   0.0000

          k = 0.0000-0.1250 0.1250 (  1141 PWs)   bands (ev):

   -69.5680 -35.4699 -35.4325 -35.4138   9.8096  15.8086  15.9456  16.3175
    17.3270  17.4947  38.5704  40.8172

     occupation numbers 
     1.0000   1.0000   1.0000   1.0000   1.0000   1.0000   1.0000   1.0000
     1.0833   0.5317   0.0000   0.0000

          k = 0.0000-0.1875 0.1875 (  1139 PWs)   bands (ev):

   -69.5567 -35.5317 -35.4532 -35.4137  10.5387  15.6217  15.8658  16.7074
    17.2458  17.5173  35.8390  39.5510

     occupation numbers 
     1.0000   1.0000   1.0000   1.0000   1.0000   1.0000   1.0000   1.0000
     1.0402   0.4118   0.0000   0.0000

          k = 0.0000-0.2500 0.2500 (  1134 PWs)   bands (ev):

   -69.5435 -35.6040 -35.4775 -35.4136  11.4483  15.4074  15.7826  17.1950
    17.2468  17.5514  32.9959  38.2176

     occupation numbers 
     1.0000   1.0000   1.0000   1.0000   1.0000   1.0000   1.0000   1.0151
     1.0408   0.2558   0.0000   0.0000

          k = 0.0000-0.3125 0.3125 (  1144 PWs)   bands (ev):

   -69.5302 -35.6759 -35.5018 -35.4135  12.3494  15.1991  15.8898  17.3158
    17.5940  17.7185  30.2374  37.0457

     occupation numbers 
     1.0000   1.0000   1.0000   1.0000   1.0000   1.0000   1.0000   1.0818
     0.1205   0.0047   0.0000   0.0000

          k = 0.0000-0.3750 0.3750 (  1148 PWs)   bands (ev):

   -69.5189 -35.7364 -35.5222 -35.4135  12.9488  15.0271  16.4504  17.4104
    17.6372  18.1962  27.7348  36.1469

     occupation numbers 
     1.0000   1.0000   1.0000   1.0000   1.0000   1.0000   1.0000   0.9488
     0.0468   0.0000   0.0000   0.0000

          k = 0.0000-0.4375 0.4375 (  1148 PWs)   bands (ev):

   -69.5114 -35.7766 -35.5359 -35.4134  13.1738  14.9143  17.2821  17.5538
    17.6697  18.5363  25.7704  35.5838

     occupation numbers 
     1.0000   1.0000   1.0000   1.0000   1.0000   1.0000   1.0648   0.2464
     0.0202   0.0000   0.0000   0.0000

          k = 0.0000 0.5000-0.5000 (  1148 PWs)   bands (ev):

   -69.5087 -35.7907 -35.5407 -35.4134  13.2174  14.8751  17.4484  17.6819
    17.9112  18.6603  24.9462  35.3922

     occupation numbers 
     1.0000   1.0000   1.0000   1.0000   1.0000   1.0000   0.7828   0.0143
     0.0000   0.0000   0.0000   0.0000

          k =-0.0625-0.0625 0.1250 (  1139 PWs)   bands (ev):

   -69.5704 -35.4571 -35.4237 -35.4174   9.6576  15.8769  15.9199  16.2474
    17.3493  17.4968  39.5079  40.4110

     occupation numbers 
     1.0000   1.0000   1.0000   1.0000   1.0000   1.0000   1.0000   1.0000
     1.0759   0.5202   0.0000   0.0000

          k =-0.0625-0.1250 0.1875 (  1146 PWs)   bands (ev):

   -69.5611 -35.5082 -35.4401 -35.4189  10.2554  15.7240  15.8475  16.5812
    17.2414  17.5270  37.2194  39.0682

     occupation numbers 
     1.0000   1.0000   1.0000   1.0000   1.0000   1.0000   1.0000   1.0000
     1.0375   0.3639   0.0000   0.0000

          k =-0.0625-0.1875 0.2500 (  1141 PWs)   bands (ev):

   -69.5488 -35.5735 -35.4640 -35.4191  11.0841  15.5191  15.7443  17.0354
    17.1953  17.5676  34.4700  37.8305

     occupation numbers 
     1.0000   1.0000   1.0000   1.0000   1.0000   1.0000   1.0000   1.0001
     1.0152   0.1962   0.0000   0.0000

          k =-0.0625-0.2500 0.3125 (  1136 PWs)   bands (ev):

   -69.5355 -35.6434 -35.4902 -35.4192  12.0167  15.3048  15.7013  17.2319
    17.5594  17.6298  31.6630  36.7072

     occupation numbers 
     1.0000   1.0000   1.0000   1.0000   1.0000   1.0000   1.0000   1.0318
     0.2252   0.0558   0.0000   0.0000

          k =-0.0625-0.3125 0.3750 (  1140 PWs)   bands (ev):

   -69.5232 -35.7075 -35.5145 -35.4192  12.7965  15.1142  15.9504  17.3283
    17.6659  18.1376  29.0048  35.7744

     occupation numbers 
     1.0000   1.0000   1.0000   1.0000   1.0000   1.0000   1.0000   1.0833
     0.0224   0.0000   0.0000   0.0000

          k =-0.0625-0.3750 0.4375 (  1145 PWs)   bands (ev):

   -69.5138 -35.7563 -35.5331 -35.4193  13.1847  14.9730  16.5767  17.4201
    17.7681  18.6728  26.7045  35.1047

     occupation numbers 
     1.0000   1.0000   1.0000   1.0000   1.0000   1.0000   1.0000   0.9119
     0.0008   0.0000   0.0000   0.0000

          k =-0.0625 0.5625-0.5000 (  1144 PWs)   bands (ev):

   -69.5087 -35.7826 -35.5431 -35.4193  13.2898  14.8981  17.0864  17.4409
    17.9517  19.1212  25.1834  34.7540

     occupation numbers 
     1.0000   1.0000   1.0000   1.0000   1.0000   1.0000   1.0006   0.8197
     0.0000   0.0000   0.0000   0.0000

          k =-0.1250-0.1250 0.2500 (  1146 PWs)   bands (ev):

   -69.5507 -35.5621 -35.4538 -35.4271  10.9591  15.6104  15.6661  17.0060
    17.1542  17.5887  35.6392  36.7703

     occupation numbers 
     1.0000   1.0000   1.0000   1.0000   1.0000   1.0000   1.0000   1.0000
     1.0054   0.1337   0.0000   0.0000

          k =-0.1250-0.1875 0.3125 (  1140 PWs)   bands (ev):

   -69.5384 -35.6224 -35.4789 -35.4309  11.8400  15.4125  15.5314  17.1408
    17.5220  17.6841  33.2135  35.2245

     occupation numbers 
     1.0000   1.0000   1.0000   1.0000   1.0000   1.0000   1.0000   1.0037
     0.3879   0.0135   0.0000   0.0000

          k =-0.1250-0.2500 0.3750 (  1145 PWs)   bands (ev):

   -69.5261 -35.6807 -35.5078 -35.4323  12.7192  15.2028  15.5384  17.2115
    17.6871  18.2191  30.5016  34.1829

     occupation numbers 
     1.0000   1.0000   1.0000   1.0000   1.0000   1.0000   1.0000   1.0215
     0.0124   0.0000   0.0000   0.0000

          k =-0.1250-0.3125 0.4375 (  1144 PWs)   bands (ev):

   -69.5157 -35.7290 -35.5336 -35.4331  13.2995  15.0461  15.8394  17.3235
    17.7636  18.9395  27.9690  33.4063

     occupation numbers 
     1.0000   1.0000   1.0000   1.0000   1.0000   1.0000   1.0000   1.0832
     0.0010   0.0000   0.0000   0.0000

          k =-0.1250 0.6250-0.5000 (  1150 PWs)   bands (ev):

   -69.5087 -35.7608 -35.5512 -35.4334  13.4974  14.9504  16.2956  17.3996
    17.8856  19.7269  25.9121  32.9109

     occupation numbers 
     1.0000   1.0000   1.0000   1.0000   1.0000   1.0000   1.0000   0.9844
     0.0000   0.0000   0.0000   0.0000

          k =-0.1250 0.5625-0.4375 (  1145 PWs)   bands (ev):

   -69.5063 -35.7719 -35.5575 -35.4335  13.5291  14.9179  16.4945  17.4148
    17.9649  20.1860  24.9963  32.7392

     occupation numbers 
     1.0000   1.0000   1.0000   1.0000   1.0000   1.0000   1.0000   0.9325
     0.0000   0.0000   0.0000   0.0000

          k =-0.1875-0.1875 0.3750 (  1140 PWs)   bands (ev):

   -69.5271 -35.6693 -35.5042 -35.4401  12.6972  15.2369  15.3935  17.1551
    17.6922  18.2628  31.8704  32.6931

     occupation numbers 
     1.0000   1.0000   1.0000   1.0000   1.0000   1.0000   1.0000   1.0055
     0.0106   0.0000   0.0000   0.0000

          k =-0.1875-0.2500 0.4375 (  1145 PWs)   bands (ev):

   -69.5167 -35.7080 -35.5358 -35.4449  13.4345  15.0563  15.4291  17.2392
    17.7520  19.0973  29.5070  31.4837

     occupation numbers 
     1.0000   1.0000   1.0000   1.0000   1.0000   1.0000   1.0000   1.0361
     0.0015   0.0000   0.0000   0.0000

          k =-0.1875 0.6875-0.5000 (  1148 PWs)   bands (ev):

   -69.5087 -35.7346 -35.5641 -35.4472  13.7940  14.9715  15.6597  17.3501
    17.8144  20.1105  27.1225  30.8233

     occupation numbers 
     1.0000   1.0000   1.0000   1.0000   1.0000   1.0000   1.0000   1.0753
     0.0001   0.0000   0.0000   0.0000

          k =-0.1875 0.6250-0.4375 (  1146 PWs)   bands (ev):

   -69.5044 -35.7480 -35.5807 -35.4482  13.8673  14.9414  15.8918  17.4155
    17.8834  21.1159  25.3683  30.4831

     occupation numbers 
     1.0000   1.0000   1.0000   1.0000   1.0000   1.0000   1.0000   0.9299
     0.0000   0.0000   0.0000   0.0000

          k =-0.2500 0.7500-0.5000 (  1157 PWs)   bands (ev):

   -69.5088 -35.7216 -35.5719 -35.4527  13.9842  14.9161  15.4227  17.3262
    17.7863  20.2358  28.4209  29.2189

     occupation numbers 
     1.0000   1.0000   1.0000   1.0000   1.0000   1.0000   1.0000   1.0833
     0.0004   0.0000   0.0000   0.0000

          k =-0.2500 0.6875-0.4375 (  1152 PWs)   bands (ev):

   -69.5034 -35.7228 -35.6053 -35.4564  14.2173  14.9063  15.4572  17.4377
    17.7989  21.5959  26.4019  28.4657

     occupation numbers 
     1.0000   1.0000   1.0000   1.0000   1.0000   1.0000   1.0000   0.8348
     0.0002   0.0000   0.0000   0.0000

          k =-0.2500 0.6250-0.3750 (  1152 PWs)   bands (ev):

   -69.5016 -35.7204 -35.6200 -35.4576  14.2493  14.9389  15.4765  17.4911
    17.8014  22.5545  25.1468  28.2767

     occupation numbers 
     1.0000   1.0000   1.0000   1.0000   1.0000   1.0000   1.0000   0.5515
     0.0002   0.0000   0.0000   0.0000

          k =-0.3125 0.6875-0.3750 (  1158 PWs)   bands (ev):

   -69.5005 -35.6963 -35.6485 -35.4606  14.4676  14.9562  15.2268  17.5672
    17.7223  23.2936  25.3128  27.0365

     occupation numbers 
     1.0000   1.0000   1.0000   1.0000   1.0000   1.0000   1.0000   0.1976
     0.0041   0.0000   0.0000   0.0000

          k = 0.0000 0.0000 0.1250 (  1133 PWs)   bands (ev):

   -69.5729 -35.4329 -35.4235 -35.4235   9.5036  15.9766  15.9766  16.0694
    17.3277  17.5377  40.1973  41.5072

     occupation numbers 
     1.0000   1.0000   1.0000   1.0000   1.0000   1.0000   1.0000   1.0000
     1.0833   0.3138   0.0000   0.0000

          k = 0.0000-0.0625 0.1875 (  1137 PWs)   bands (ev):

   -69.5654 -35.4710 -35.4375 -35.4260   9.9613  15.8785  15.9607  16.2946
    17.1667  17.5879  38.4659  40.5311

     occupation numbers 
     1.0000   1.0000   1.0000   1.0000   1.0000   1.0000   1.0000   1.0000
     1.0076   0.1359   0.0000   0.0000

          k = 0.0000-0.1250 0.2500 (  1141 PWs)   bands (ev):

   -69.5543 -35.5316 -35.4583 -35.4258  10.6822  15.6997  15.8891  16.6837
    17.0506  17.6344  35.9181  39.1696

     occupation numbers 
     1.0000   1.0000   1.0000   1.0000   1.0000   1.0000   1.0000   1.0000
     1.0002   0.0501   0.0000   0.0000

          k = 0.0000-0.1875 0.3125 (  1138 PWs)   bands (ev):

   -69.5412 -35.6028 -35.4827 -35.4253  11.5801  15.4920  15.7794  17.0586
    17.1733  17.6870  33.1054  37.8981

     occupation numbers 
     1.0000   1.0000   1.0000   1.0000   1.0000   1.0000   1.0000   1.0002
     1.0090   0.0124   0.0000   0.0000

          k = 0.0000-0.2500 0.3750 (  1140 PWs)   bands (ev):

   -69.5280 -35.6736 -35.5071 -35.4248  12.4687  15.2895  15.8014  17.1773
    17.7000  17.7680  30.3432  36.8105

     occupation numbers 
     1.0000   1.0000   1.0000   1.0000   1.0000   1.0000   1.0000   1.0099
     0.0084   0.0008   0.0000   0.0000

          k = 0.0000-0.3125 0.4375 (  1146 PWs)   bands (ev):

   -69.5169 -35.7332 -35.5277 -35.4244  13.0598  15.1220  16.1498  17.3200
    17.9855  18.1814  27.8220  35.9779

     occupation numbers 
     1.0000   1.0000   1.0000   1.0000   1.0000   1.0000   1.0000   1.0827
     0.0000   0.0000   0.0000   0.0000

          k = 0.0000-0.3750 0.5000 (  1145 PWs)   bands (ev):

   -69.5094 -35.7728 -35.5414 -35.4241  13.2786  15.0121  16.6160  17.3682
    18.5114  18.5247  25.8190  35.4557

     occupation numbers 
     1.0000   1.0000   1.0000   1.0000   1.0000   1.0000   1.0000   1.0551
     0.0000   0.0000   0.0000   0.0000

          k = 0.0000 0.5625-0.4375 (  1148 PWs)   bands (ev):

   -69.5068 -35.7867 -35.5462 -35.4240  13.3195  14.9739  16.8060  17.3575
    18.6499  18.8996  24.9614  35.2777

     occupation numbers 
     1.0000   1.0000   1.0000   1.0000   1.0000   1.0000   1.0000   1.0687
     0.0000   0.0000   0.0000   0.0000

          k =-0.0625-0.0625 0.2500 (  1143 PWs)   bands (ev):

   -69.5563 -35.5131 -35.4522 -35.4360  10.5452  15.8306  15.8901  16.5618
    16.9792  17.6644  36.9801  38.4730

     occupation numbers 
     1.0000   1.0000   1.0000   1.0000   1.0000   1.0000   1.0000   1.0000
     1.0000   0.0234   0.0000   0.0000

          k =-0.0625-0.1250 0.3125 (  1142 PWs)   bands (ev):

   -69.5443 -35.5742 -35.4752 -35.4388  11.3516  15.6661  15.7730  16.8968
    17.0038  17.7404  34.6390  36.7719

     occupation numbers 
     1.0000   1.0000   1.0000   1.0000   1.0000   1.0000   1.0000   1.0000
     1.0000   0.0022   0.0000   0.0000

          k =-0.0625-0.1875 0.3750 (  1141 PWs)   bands (ev):

   -69.5312 -35.6410 -35.5017 -35.4390  12.2553  15.4545  15.6665  16.9735
    17.5112  17.8616  31.8773  35.6050

     occupation numbers 
     1.0000   1.0000   1.0000   1.0000   1.0000   1.0000   1.0000   1.0000
     0.4434   0.0000   0.0000   0.0000

          k =-0.0625-0.2500 0.4375 (  1144 PWs)   bands (ev):

   -69.5192 -35.7026 -35.5263 -35.4386  13.0121  15.2735  15.7234  17.1416
    17.8437  18.2826  29.2021  34.6911

     occupation numbers 
     1.0000   1.0000   1.0000   1.0000   1.0000   1.0000   1.0000   1.0038
     0.0000   0.0000   0.0000   0.0000

          k =-0.0625-0.3125 0.5000 (  1143 PWs)   bands (ev):

   -69.5100 -35.7496 -35.5452 -35.4382  13.3883  15.1479  16.0140  17.2607
    18.1291  18.9776  26.8502  34.0314

     occupation numbers 
     1.0000   1.0000   1.0000   1.0000   1.0000   1.0000   1.0000   1.0501
     0.0000   0.0000   0.0000   0.0000

          k =-0.0625 0.6250-0.4375 (  1145 PWs)   bands (ev):

   -69.5050 -35.7749 -35.5554 -35.4379  13.4847  15.0818  16.2718  17.2791
    18.3752  19.6991  25.2398  33.6794

     occupation numbers 
     1.0000   1.0000   1.0000   1.0000   1.0000   1.0000   1.0000   1.0628
     0.0000   0.0000   0.0000   0.0000

          k =-0.1250 0.1250 0.1250 (  1142 PWs)   bands (ev):

   -69.5634 -35.5018 -35.4241 -35.4241  10.1094  15.7687  15.7687  16.5726
    17.4027  17.4027  38.3643  38.3643

     occupation numbers 
     1.0000   1.0000   1.0000   1.0000   1.0000   1.0000   1.0000   1.0000
     0.9746   0.9746   0.0000   0.0000

          k =-0.1250-0.1250 0.3750 (  1134 PWs)   bands (ev):

   -69.5324 -35.6265 -35.4990 -35.4478  12.1814  15.5027  15.6454  16.8664
    17.4640  17.9003  33.2260  34.1494

     occupation numbers 
     1.0000   1.0000   1.0000   1.0000   1.0000   1.0000   1.0000   1.0000
     0.7008   0.0000   0.0000   0.0000

          k =-0.1250-0.1875 0.4375 (  1139 PWs)   bands (ev):

   -69.5205 -35.6786 -35.5282 -35.4513  13.0072  15.2658  15.6016  16.9707
    17.7476  18.4047  30.7962  32.7863

     occupation numbers 
     1.0000   1.0000   1.0000   1.0000   1.0000   1.0000   1.0000   1.0000
     0.0017   0.0000   0.0000   0.0000

          k =-0.1250-0.2500 0.5000 (  1143 PWs)   bands (ev):

   -69.5104 -35.7222 -35.5550 -35.4523  13.5697  15.1517  15.6277  17.1361
    17.9062  19.2596  28.2390  31.9792

     occupation numbers 
     1.0000   1.0000   1.0000   1.0000   1.0000   1.0000   1.0000   1.0032
     0.0000   0.0000   0.0000   0.0000

          k =-0.1250 0.6875-0.4375 (  1152 PWs)   bands (ev):

   -69.5036 -35.7510 -35.5736 -35.4526  13.7639  15.1377  15.7461  17.2354
    18.0974  20.3007  26.0837  31.4704

     occupation numbers 
     1.0000   1.0000   1.0000   1.0000   1.0000   1.0000   1.0000   1.0339
     0.0000   0.0000   0.0000   0.0000

          k =-0.1250 0.6250-0.3750 (  1154 PWs)   bands (ev):

   -69.5012 -35.7610 -35.5802 -35.4526  13.7909  15.1363  15.8167  17.2567
    18.1941  20.9454  25.0564  31.2934

     occupation numbers 
     1.0000   1.0000   1.0000   1.0000   1.0000   1.0000   1.0000   1.0474
     0.0000   0.0000   0.0000   0.0000

          k =-0.1875 0.1875 0.1250 (  1145 PWs)   bands (ev):

   -69.5529 -35.5589 -35.4436 -35.4247  10.8238  15.5635  15.6444  17.0164
    17.3224  17.4680  35.8767  37.1902

     occupation numbers 
     1.0000   1.0000   1.0000   1.0000   1.0000   1.0000   1.0000   1.0000
     1.0830   0.6793   0.0000   0.0000

          k =-0.1875-0.1875 0.5000 (  1143 PWs)   bands (ev):

   -69.5105 -35.7085 -35.5619 -35.4579  13.6778  15.0244  15.5926  17.0728
    17.8351  19.3530  29.6475  30.3316

     occupation numbers 
     1.0000   1.0000   1.0000   1.0000   1.0000   1.0000   1.0000   1.0004
     0.0001   0.0000   0.0000   0.0000

          k =-0.1875 0.7500-0.4375 (  1147 PWs)   bands (ev):

   -69.5029 -35.7274 -35.5939 -35.4608  14.0774  14.9467  15.5343  17.2336
    17.9119  20.5865  27.4299  29.4283

     occupation numbers 
     1.0000   1.0000   1.0000   1.0000   1.0000   1.0000   1.0000   1.0328
     0.0000   0.0000   0.0000   0.0000

          k =-0.1875 0.6875-0.3750 (  1153 PWs)   bands (ev):

   -69.4987 -35.7355 -35.6138 -35.4618  14.1704  15.0697  15.4277  17.3364
    17.9858  21.8772  25.5168  29.0662

     occupation numbers 
     1.0000   1.0000   1.0000   1.0000   1.0000   1.0000   1.0000   1.0821
     0.0000   0.0000   0.0000   0.0000

          k =-0.2500 0.2500 0.1250 (  1138 PWs)   bands (ev):

   -69.5405 -35.6215 -35.4708 -35.4253  11.7201  15.3434  15.5260  17.3059
    17.5330  17.5625  33.1376  36.0946

     occupation numbers 
     1.0000   1.0000   1.0000   1.0000   1.0000   1.0000   1.0000   1.0783
     0.3352   0.2139   0.0000   0.0000

          k =-0.2500 0.1875 0.1875 (  1138 PWs)   bands (ev):

   -69.5423 -35.6137 -35.4562 -35.4354  11.6171  15.3952  15.4183  17.3297
    17.5082  17.5723  34.3829  35.1354

     occupation numbers 
     1.0000   1.0000   1.0000   1.0000   1.0000   1.0000   1.0000   1.0832
     0.4589   0.1809   0.0000   0.0000

          k =-0.2500 0.7500-0.3750 (  1148 PWs)   bands (ev):

   -69.4979 -35.7178 -35.6346 -35.4646  14.4732  14.8306  15.3337  17.4187
    17.8616  22.1849  26.3867  27.6058

     occupation numbers 
     1.0000   1.0000   1.0000   1.0000   1.0000   1.0000   1.0000   0.9173
     0.0000   0.0000   0.0000   0.0000

          k =-0.2500 0.6875-0.3125 (  1153 PWs)   bands (ev):

   -69.4961 -35.7059 -35.6578 -35.4657  14.5805  14.9813  15.0898  17.5383
    17.8053  23.4771  25.0612  27.2071

     occupation numbers 
     1.0000   1.0000   1.0000   1.0000   1.0000   1.0000   1.0000   0.3112
     0.0002   0.0000   0.0000   0.0000

          k =-0.3125 0.3125 0.1250 (  1139 PWs)   bands (ev):

   -69.5281 -35.6816 -35.5000 -35.4260  12.6147  15.1400  15.5627  17.3518
    17.5924  18.1798  30.4010  35.1512

     occupation numbers 
     1.0000   1.0000   1.0000   1.0000   1.0000   1.0000   1.0000   1.0740
     0.1244   0.0000   0.0000   0.0000

          k =-0.3125 0.2500 0.1875 (  1136 PWs)   bands (ev):

   -69.5307 -35.6655 -35.4842 -35.4398  12.5230  15.1861  15.2948  17.3458
    17.5855  18.2295  31.9564  33.8421

     occupation numbers 
     1.0000   1.0000   1.0000   1.0000   1.0000   1.0000   1.0000   1.0782
     0.1421   0.0000   0.0000   0.0000

          k =-0.3750 0.3750 0.1250 (  1148 PWs)   bands (ev):

   -69.5176 -35.7315 -35.5256 -35.4267  13.2005  14.9774  15.9811  17.4208
    17.6419  18.8462  27.8805  34.4236

     occupation numbers 
     1.0000   1.0000   1.0000   1.0000   1.0000   1.0000   1.0000   0.9093
     0.0418   0.0000   0.0000   0.0000

          k =-0.3750 0.3125 0.1875 (  1144 PWs)   bands (ev):

   -69.5201 -35.7087 -35.5164 -35.4421  13.2892  15.0074  15.4042  17.4021
    17.6472  18.9910  29.3312  32.9714

     occupation numbers 
     1.0000   1.0000   1.0000   1.0000   1.0000   1.0000   1.0000   0.9767
     0.0366   0.0000   0.0000   0.0000

          k =-0.3750 0.2500 0.2500 (  1137 PWs)   bands (ev):

   -69.5210 -35.6994 -35.5103 -35.4516  13.3473  15.0320  15.1641  17.3834
    17.6565  19.0467  30.7171  31.4619

     occupation numbers 
     1.0000   1.0000   1.0000   1.0000   1.0000   1.0000   1.0000   1.0269
     0.0288   0.0000   0.0000   0.0000

          k = 0.5625-0.5625 0.1250 (  1146 PWs)   bands (ev):

   -69.5105 -35.7643 -35.5430 -35.4270  13.4003  14.8728  16.6279  17.4726
    17.6754  19.5316  25.8596  33.9639

     occupation numbers 
     1.0000   1.0000   1.0000   1.0000   1.0000   1.0000   1.0000   0.6540
     0.0172   0.0000   0.0000   0.0000

          k = 0.5625-0.6250 0.1875 (  1147 PWs)   bands (ev):

   -69.5119 -35.7392 -35.5437 -35.4434  13.6343  14.8855  15.8602  17.4689
    17.6928  19.8641  26.9705  32.3667

     occupation numbers 
     1.0000   1.0000   1.0000   1.0000   1.0000   1.0000   1.0000   0.6742
     0.0104   0.0000   0.0000   0.0000

          k = 0.5625-0.6875 0.2500 (  1147 PWs)   bands (ev):

   -69.5127 -35.7200 -35.5444 -35.4578  13.9004  14.9053  15.2997  17.4486
    17.7051  20.0411  28.4425  30.4255

     occupation numbers 
     1.0000   1.0000   1.0000   1.0000   1.0000   1.0000   1.0000   0.7816
     0.0072   0.0000   0.0000   0.0000

          k = 0.5000-0.5000 0.1250 (  1146 PWs)   bands (ev):

   -69.5081 -35.7758 -35.5491 -35.4272  13.4334  14.8368  16.9369  17.4862
    17.6874  19.9172  24.9799  33.8066

     occupation numbers 
     1.0000   1.0000   1.0000   1.0000   1.0000   1.0000   1.0000   0.5787
     0.0122   0.0000   0.0000   0.0000

          k = 0.5000-0.5625 0.1875 (  1154 PWs)   bands (ev):

   -69.5075 -35.7548 -35.5594 -35.4442  13.7003  14.8235  16.2828  17.5097
    17.7246  20.6939  25.3062  32.0512

     occupation numbers 
     1.0000   1.0000   1.0000   1.0000   1.0000   1.0000   1.0000   0.4511
     0.0038   0.0000   0.0000   0.0000

          k = 0.5000-0.6250 0.2500 (  1158 PWs)   bands (ev):

   -69.5071 -35.7285 -35.5735 -35.4608  14.0451  14.8407  15.6466  17.5164
    17.7325  21.1947  26.2622  29.9292

     occupation numbers 
     1.0000   1.0000   1.0000   1.0000   1.0000   1.0000   1.0000   0.4162
     0.0029   0.0000   0.0000   0.0000

          k = 0.5000-0.6875 0.3125 (  1157 PWs)   bands (ev):

   -69.5070 -35.7149 -35.5819 -35.4674  14.2620  14.8683  15.3097  17.5171
    17.7286  21.3525  27.4255  28.3673

     occupation numbers 
     1.0000   1.0000   1.0000   1.0000   1.0000   1.0000   1.0000   0.4127
     0.0033   0.0000   0.0000   0.0000

          k = 0.4375-0.5625 0.2500 (  1156 PWs)   bands (ev):

   -69.5052 -35.7301 -35.5852 -35.4617  14.0530  14.8208  15.8157  17.5456
    17.7430  21.9482  25.1440  29.7624

     occupation numbers 
     1.0000   1.0000   1.0000   1.0000   1.0000   1.0000   1.0000   0.2797
     0.0020   0.0000   0.0000   0.0000

          k = 0.4375-0.6250 0.3125 (  1160 PWs)   bands (ev):

   -69.5039 -35.7006 -35.6148 -35.4716  14.3493  14.8905  15.3852  17.5842
    17.7201  22.7941  25.6441  27.7816

     occupation numbers 
     1.0000   1.0000   1.0000   1.0000   1.0000   1.0000   1.0000   0.1457
     0.0044   0.0000   0.0000   0.0000

          k = 0.3750-0.6250 0.3750 (  1157 PWs)   bands (ev):

   -69.5028 -35.6603 -35.6603 -35.4751  14.4464  15.1048  15.1048  17.6617
    17.6617  24.4946  24.4946  26.8333

     occupation numbers 
     1.0000   1.0000   1.0000   1.0000   1.0000   1.0000   1.0000   0.0251
     0.0251   0.0000   0.0000   0.0000

          k = 0.0000 0.0000 0.2500 (  1140 PWs)   bands (ev):

   -69.5582 -35.4835 -35.4516 -35.4516  10.4044  15.9929  15.9929  16.3211
    16.8938  17.6957  37.8802  39.7498

     occupation numbers 
     1.0000   1.0000   1.0000   1.0000   1.0000   1.0000   1.0000   1.0000
     1.0000   0.0096   0.0000   0.0000

[...]
     0.0000   0.0000   0.0000   0.0000

          k = 0.0000 0.6875-0.3125 (  1144 PWs)   bands (ev):

   -69.4929 -35.7584 -35.5857 -35.4985  13.9189  15.2137  15.7270  16.9291
    18.5766  21.3760  25.1375  32.6563

     occupation numbers 
     1.0000   1.0000   1.0000   1.0000   1.0000   1.0000   1.0000   1.0000
     0.0000   0.0000   0.0000   0.0000

          k =-0.0625-0.0625 0.5000 (  1150 PWs)   bands (ev):

   -69.5130 -35.6375 -35.5478 -35.5186  13.2000  15.3782  16.1692  16.5116
    17.4133  18.5384  32.6784  33.2153

     occupation numbers 
     1.0000   1.0000   1.0000   1.0000   1.0000   1.0000   1.0000   1.0000
     0.9383   0.0000   0.0000   0.0000

          k =-0.0625-0.1250 0.5625 (  1151 PWs)   bands (ev):

   -69.5020 -35.6837 -35.5750 -35.5201  13.7545  15.0289  16.0957  16.7775
    17.8255  19.3038  30.1547  32.0356

     occupation numbers 
     1.0000   1.0000   1.0000   1.0000   1.0000   1.0000   1.0000   1.0000
     0.0001   0.0000   0.0000   0.0000

          k =-0.0625-0.1875 0.6250 (  1150 PWs)   bands (ev):

   -69.4936 -35.7216 -35.5957 -35.5186  14.0439  14.8667  15.9790  16.9533
    18.1977  20.5282  27.6357  31.3033

     occupation numbers 
     1.0000   1.0000   1.0000   1.0000   1.0000   1.0000   1.0000   1.0000
     0.0000   0.0000   0.0000   0.0000

          k =-0.0625 0.7500-0.3125 (  1156 PWs)   bands (ev):

   -69.4890 -35.7425 -35.6069 -35.5174  14.0910  14.8880  15.8939  17.0120
    18.4344  21.8967  25.6385  30.9056

     occupation numbers 
     1.0000   1.0000   1.0000   1.0000   1.0000   1.0000   1.0000   1.0000
     0.0000   0.0000   0.0000   0.0000

          k =-0.1250-0.1250 0.6250 (  1158 PWs)   bands (ev):

   -69.4929 -35.7064 -35.6091 -35.5241  14.1331  14.7218  16.0378  17.0527
    18.0197  20.5224  29.1034  29.6303

     occupation numbers 
     1.0000   1.0000   1.0000   1.0000   1.0000   1.0000   1.0000   1.0002
     0.0000   0.0000   0.0000   0.0000

          k =-0.1250 0.8125-0.3125 (  1152 PWs)   bands (ev):

   -69.4869 -35.7207 -35.6350 -35.5242  14.2994  14.6078  15.8920  17.2918
    18.1759  22.0856  26.9038  28.8815

     occupation numbers 
     1.0000   1.0000   1.0000   1.0000   1.0000   1.0000   1.0000   1.0709
     0.0000   0.0000   0.0000   0.0000

          k =-0.1250 0.7500-0.2500 (  1157 PWs)   bands (ev):

   -69.4848 -35.7254 -35.6447 -35.5239  14.2865  14.6497  15.8179  17.3714
    18.2468  23.2851  25.4385  28.6766

     occupation numbers 
     1.0000   1.0000   1.0000   1.0000   1.0000   1.0000   1.0000   1.0502
     0.0000   0.0000   0.0000   0.0000

          k =-0.1875 0.8125-0.2500 (  1154 PWs)   bands (ev):

   -69.4833 -35.7067 -35.6716 -35.5252  14.4563  14.4767  15.7534  17.6695
    18.0340  23.8868  25.9427  27.2091

     occupation numbers 
     1.0000   1.0000   1.0000   1.0000   1.0000   1.0000   1.0000   0.0203
     0.0000   0.0000   0.0000   0.0000

          k = 0.6250-0.6250 0.3750 (  1157 PWs)   bands (ev):

   -69.5096 -35.7066 -35.5217 -35.5217  14.6536  14.8018  14.8018  17.6465
    17.6465  21.2242  29.1134  29.1134

     occupation numbers 
     1.0000   1.0000   1.0000   1.0000   1.0000   1.0000   1.0000   0.0372
     0.0372   0.0000   0.0000   0.0000

          k = 0.5625-0.5625 0.3750 (  1155 PWs)   bands (ev):

   -69.5061 -35.6867 -35.5655 -35.5252  14.6506  14.7569  15.1251  17.6677
    17.6986  22.6588  27.0090  28.7002

     occupation numbers 
     1.0000   1.0000   1.0000   1.0000   1.0000   1.0000   1.0000   0.0213
     0.0088   0.0000   0.0000   0.0000

          k = 0.5000-0.5000 0.3750 (  1154 PWs)   bands (ev):

   -69.5049 -35.6708 -35.5897 -35.5264  14.6101  14.7435  15.2805  17.6779
    17.7142  23.8038  25.5752  28.5612

     occupation numbers 
     1.0000   1.0000   1.0000   1.0000   1.0000   1.0000   1.0000   0.0161
     0.0054   0.0000   0.0000   0.0000

          k = 0.5000-0.5625 0.4375 (  1150 PWs)   bands (ev):

   -69.5045 -35.6482 -35.5960 -35.5461  14.6999  14.8807  15.0608  17.7016
    17.7132  24.3291  26.2397  27.2471

     occupation numbers 
     1.0000   1.0000   1.0000   1.0000   1.0000   1.0000   1.0000   0.0080
     0.0055   0.0000   0.0000   0.0000

          k = 0.0000 0.0000 0.5000 (  1136 PWs)   bands (ev):

   -69.5133 -35.6089 -35.5458 -35.5458  13.1299  15.4778  16.3827  16.3827
    17.1603  18.5030  34.2118  34.2118

     occupation numbers 
     1.0000   1.0000   1.0000   1.0000   1.0000   1.0000   1.0000   1.0000
     1.0064   0.0000   0.0000   0.0000

          k = 0.0000-0.0625 0.5625 (  1156 PWs)   bands (ev):

   -69.5018 -35.6496 -35.5718 -35.5569  13.6567  15.0741  16.4485  16.6375
    17.5376  19.1135  31.7528  32.9380

     occupation numbers 
     1.0000   1.0000   1.0000   1.0000   1.0000   1.0000   1.0000   1.0000
     0.3144   0.0000   0.0000   0.0000

          k = 0.0000-0.1250 0.6250 (  1153 PWs)   bands (ev):

   -69.4920 -35.6951 -35.5937 -35.5549  13.9895  14.7543  16.3990  16.8536
    18.0142  20.1786  29.1193  31.9172

     occupation numbers 
     1.0000   1.0000   1.0000   1.0000   1.0000   1.0000   1.0000   1.0000
     0.0000   0.0000   0.0000   0.0000

          k = 0.0000-0.1875 0.6875 (  1151 PWs)   bands (ev):

   -69.4854 -35.7270 -35.6084 -35.5519  14.0978  14.6221  16.3470  16.9472
    18.3852  21.6443  26.7400  31.2410

     occupation numbers 
     1.0000   1.0000   1.0000   1.0000   1.0000   1.0000   1.0000   1.0000
     0.0000   0.0000   0.0000   0.0000

          k = 0.0000 0.7500-0.2500 (  1152 PWs)   bands (ev):

   -69.4831 -35.7383 -35.6135 -35.5507  14.0946  14.6127  16.3270  16.9680
    18.5251  22.7248  25.3647  31.0021

     occupation numbers 
     1.0000   1.0000   1.0000   1.0000   1.0000   1.0000   1.0000   1.0000
     0.0000   0.0000   0.0000   0.0000

          k =-0.0625-0.0625 0.6250 (  1156 PWs)   bands (ev):

   -69.4914 -35.6768 -35.6012 -35.5684  13.9652  14.7212  16.5460  16.9146
    17.8357  20.0748  30.6068  30.8857

     occupation numbers 
     1.0000   1.0000   1.0000   1.0000   1.0000   1.0000   1.0000   1.0000
     0.0000   0.0000   0.0000   0.0000

          k =-0.0625-0.1250 0.6875 (  1151 PWs)   bands (ev):

   -69.4835 -35.7055 -35.6247 -35.5682  14.1216  14.4613  16.4991  17.1731
    18.1669  21.4817  28.2405  29.9810

     occupation numbers 
     1.0000   1.0000   1.0000   1.0000   1.0000   1.0000   1.0000   1.0089
     0.0000   0.0000   0.0000   0.0000

          k =-0.0625 0.8125-0.2500 (  1153 PWs)   bands (ev):

   -69.4792 -35.7226 -35.6371 -35.5667  14.1326  14.3810  16.4534  17.2881
    18.3923  23.1125  26.0747  29.5418

     occupation numbers 
     1.0000   1.0000   1.0000   1.0000   1.0000   1.0000   1.0000   1.0687
     0.0000   0.0000   0.0000   0.0000

          k =-0.1250 0.8750-0.2500 (  1154 PWs)   bands (ev):

   -69.4778 -35.7084 -35.6571 -35.5694  14.1899  14.2566  16.4400  17.5842
    18.2165  23.1465  27.3387  27.9863

     occupation numbers 
     1.0000   1.0000   1.0000   1.0000   1.0000   1.0000   1.0000   0.1456
     0.0000   0.0000   0.0000   0.0000

          k =-0.1250 0.8125-0.1875 (  1160 PWs)   bands (ev):

   -69.4758 -35.7060 -35.6725 -35.5691  14.1667  14.2298  16.4076  17.7723
    18.2054  24.6354  25.8120  27.5865

     occupation numbers 
     1.0000   1.0000   1.0000   1.0000   1.0000   1.0000   1.0000   0.0007
     0.0000   0.0000   0.0000   0.0000

          k = 0.5000-0.5000 0.5000 (  1160 PWs)   bands (ev):

   -69.5042 -35.5980 -35.5980 -35.5980  14.8894  14.8894  14.8894  17.7198
    17.7198  26.0878  26.0878  26.0878

     occupation numbers 
     1.0000   1.0000   1.0000   1.0000   1.0000   1.0000   1.0000   0.0045
     0.0045   0.0000   0.0000   0.0000

          k = 0.0000 0.0000 0.6250 (  1152 PWs)   bands (ev):

   -69.4909 -35.6521 -35.5984 -35.5984  13.9027  14.7252  16.8627  16.8627
    17.6256  19.9321  31.5900  31.5900

     occupation numbers 
     1.0000   1.0000   1.0000   1.0000   1.0000   1.0000   1.0000   1.0000
     0.0615   0.0000   0.0000   0.0000

          k = 0.0000-0.0625 0.6875 (  1149 PWs)   bands (ev):

   -69.4817 -35.6805 -35.6209 -35.6071  14.0064  14.4023  17.0060  17.1299
    17.9690  21.1527  29.6330  30.5040

     occupation numbers 
     1.0000   1.0000   1.0000   1.0000   1.0000   1.0000   1.0000   1.0027
     0.0000   0.0000   0.0000   0.0000

          k = 0.0000-0.1250 0.7500 (  1152 PWs)   bands (ev):

   -69.4755 -35.7080 -35.6359 -35.6042  14.0272  14.1974  17.0127  17.2911
    18.3292  22.7569  27.3357  29.7792

     occupation numbers 
     1.0000   1.0000   1.0000   1.0000   1.0000   1.0000   1.0000   1.0705
     0.0000   0.0000   0.0000   0.0000

          k = 0.0000 0.8125-0.1875 (  1156 PWs)   bands (ev):

   -69.4733 -35.7182 -35.6412 -35.6026  14.0100  14.1459  17.0069  17.3405
    18.4738  24.1096  25.7418  29.5214

     occupation numbers 
     1.0000   1.0000   1.0000   1.0000   1.0000   1.0000   1.0000   1.0807
     0.0000   0.0000   0.0000   0.0000

          k =-0.0625-0.0625 0.7500 (  1154 PWs)   bands (ev):

   -69.4742 -35.6939 -35.6473 -35.6145  13.9846  14.1390  17.1081  17.5216
    18.1831  22.6071  28.6646  28.8885

     occupation numbers 
     1.0000   1.0000   1.0000   1.0000   1.0000   1.0000   1.0013   0.3899
     0.0000   0.0000   0.0000   0.0000

          k =-0.0625 0.8750-0.1875 (  1155 PWs)   bands (ev):

   -69.4701 -35.7046 -35.6632 -35.6134  13.9545  14.0018  17.1103  17.7530
    18.3523  24.3389  26.6831  28.3210

     occupation numbers 
     1.0000   1.0000   1.0000   1.0000   1.0000   1.0000   1.0014   0.0014
     0.0000   0.0000   0.0000   0.0000

          k =-0.1250 0.8750-0.1250 (  1156 PWs)   bands (ev):

   -69.4682 -35.6896 -35.6896 -35.6136  13.9298  13.9298  17.1074  18.1607
    18.1607  25.9973  25.9973  27.0438

     occupation numbers 
     1.0000   1.0000   1.0000   1.0000   1.0000   1.0000   1.0013   0.0000
     0.0000   0.0000   0.0000   0.0000

          k = 0.0000 0.0000 0.7500 (  1144 PWs)   bands (ev):

   -69.4729 -35.6753 -35.6439 -35.6439  13.9110  14.1004  17.4988  17.4988
    18.0259  22.4080  29.3528  29.3528

     occupation numbers 
     1.0000   1.0000   1.0000   1.0000   1.0000   1.0000   0.5097   0.5097
     0.0000   0.0000   0.0000   0.0000

          k = 0.0000-0.0625 0.8125 (  1155 PWs)   bands (ev):

   -69.4670 -35.6921 -35.6592 -35.6481  13.8266  13.8905  17.6586  17.7589
    18.2863  23.9784  27.8487  28.5746

     occupation numbers 
     1.0000   1.0000   1.0000   1.0000   1.0000   1.0000   0.0273   0.0012
     0.0000   0.0000   0.0000   0.0000

          k = 0.0000 0.8750-0.1250 (  1154 PWs)   bands (ev):

   -69.4650 -35.7011 -35.6646 -35.6464  13.7976  13.8134  17.6749  17.8474
    18.4306  25.4667  26.2798  28.2950

     occupation numbers 
     1.0000   1.0000   1.0000   1.0000   1.0000   1.0000   0.0175   0.0000
     0.0000   0.0000   0.0000   0.0000

          k =-0.0625 0.9375-0.1250 (  1156 PWs)   bands (ev):

   -69.4632 -35.6926 -35.6786 -35.6517  13.7385  13.7503  17.7504  18.1280
    18.3493  25.5669  27.1952  27.4546

     occupation numbers 
     1.0000   1.0000   1.0000   1.0000   1.0000   1.0000   0.0016   0.0000
     0.0000   0.0000   0.0000   0.0000

          k = 0.0000 0.0000 0.8750 (  1152 PWs)   bands (ev):

   -69.4614 -35.6839 -35.6748 -35.6748  13.6677  13.6907  18.1161  18.1161
    18.2963  25.3431  27.7492  27.7492

     occupation numbers 
     1.0000   1.0000   1.0000   1.0000   1.0000   1.0000   0.0000   0.0000
     0.0000   0.0000   0.0000   0.0000

          k = 0.0000 0.9375-0.0625 (  1154 PWs)   bands (ev):

   -69.4594 -35.6897 -35.6802 -35.6755  13.6145  13.6165  18.1916  18.2450
    18.4018  26.6242  26.8603  27.4495

     occupation numbers 
     1.0000   1.0000   1.0000   1.0000   1.0000   1.0000   0.0000   0.0000
     0.0000   0.0000   0.0000   0.0000

          k = 0.0000 0.0000-1.0000 (  1144 PWs)   bands (ev):

   -69.4574 -35.6856 -35.6856 -35.6856  13.5484  13.5484  18.3917  18.3917
    18.3917  27.1409  27.1409  27.1409

     occupation numbers 
     1.0000   1.0000   1.0000   1.0000   1.0000   1.0000   0.0000   0.0000
     0.0000   0.0000   0.0000   0.0000

     the Fermi energy is    17.5195 ev

!    total energy              =    -254.33021705 Ry
     estimated scf accuracy    <          4.7E-12 Ry
     smearing contrib. (-TS)   =      -0.00029351 Ry
     internal energy E=F+TS    =    -254.32992355 Ry

     The total energy is F=E-TS. E is the sum of the following terms:
     one-electron contribution =    -114.20950444 Ry
     hartree contribution      =      66.42714111 Ry
     xc contribution           =     -34.65756703 Ry
     ewald contribution        =    -171.88999319 Ry

     convergence has been achieved in  11 iterations

     Forces acting on atoms (cartesian axes, Ry/au):

     atom    1 type  1   force =     0.00000000    0.00000000    0.00000000
     The non-local contrib.  to forces
     atom    1 type  1   force =     0.00000000    0.00000000    0.00000000
     The ionic contribution  to forces
     atom    1 type  1   force =    -0.00000000   -0.00000000   -0.00000000
     The local contribution  to forces
     atom    1 type  1   force =    -0.00000000    0.00000000    0.00000000
     The core correction contribution to forces
     atom    1 type  1   force =    -0.00000000   -0.00000000    0.00000000
     The Hubbard contrib.    to forces
     atom    1 type  1   force =     0.00000000    0.00000000    0.00000000
     The SCF correction term to forces
     atom    1 type  1   force =    -0.00000000   -0.00000000    0.00000000

     Total force =     0.000000     Total SCF correction =     0.000000


     Computing stress (Cartesian axis) and pressure

          total   stress  (Ry/bohr**3)                   (kbar)     P=     -238.16
  -0.00161898   0.00000000  -0.00000000         -238.16        0.00       -0.00
   0.00000000  -0.00161898   0.00000000            0.00     -238.16        0.00
  -0.00000000   0.00000000  -0.00161898           -0.00        0.00     -238.16

     kinetic stress (kbar)  78702.24     -0.00      0.00
                               -0.00  78702.24     -0.00
                                0.00     -0.00  78702.24

     local   stress (kbar)  66078.47      0.00      0.00
                                0.00  66078.47      0.00
                                0.00      0.00  66078.47

     nonloc. stress (kbar) -61535.01      0.00     -0.00
                                0.00 -61535.01      0.00
                               -0.00      0.00 -61535.01

     hartree stress (kbar)  40915.15     -0.00     -0.00
                               -0.00  40915.15     -0.00
                               -0.00     -0.00  40915.15

     exc-cor stress (kbar)  -2397.42     -0.00      0.00
                               -0.00  -2397.42      0.00
                                0.00      0.00  -2397.42

     corecor stress (kbar) -16127.63     -0.00     -0.00
                               -0.00 -16127.63      0.00
                               -0.00      0.00 -16127.63

     ewald   stress (kbar)-105873.96      0.00      0.00
                                0.00-105873.96      0.00
                                0.00      0.00-105873.96

     hubbard stress (kbar)      0.00      0.00      0.00
                                0.00      0.00      0.00
                                0.00      0.00      0.00

     DFT-D   stress (kbar)      0.00      0.00      0.00
                                0.00      0.00      0.00
                                0.00      0.00      0.00

     XDM     stress (kbar)      0.00      0.00      0.00
                                0.00      0.00      0.00
                                0.00      0.00      0.00

     dft-nl  stress (kbar)      0.00      0.00      0.00
                                0.00      0.00      0.00
                                0.00      0.00      0.00

     TS-vdW  stress (kbar)      0.00      0.00      0.00
                                0.00      0.00      0.00
                                0.00      0.00      0.00

     MDB     stress (kbar)      0.00      0.00      0.00
                                0.00      0.00      0.00
                                0.00      0.00      0.00

     3D-RISM stress (kbar)      0.00      0.00      0.00
                                0.00      0.00      0.00
                                0.00      0.00      0.00


     Writing all to output data dir ./tmp/fe_bcc_nm.save/ :
     XML data file, charge density, pseudopotentials, collected wavefunctions

     init_run     :      0.47s CPU      0.54s WALL (       1 calls)
     electrons    :      2.53s CPU      6.87s WALL (       1 calls)
     forces       :      0.02s CPU      0.03s WALL (       1 calls)
     stress       :      0.04s CPU      0.04s WALL (       1 calls)

     Called by init_run:
     wfcinit      :      0.05s CPU      0.07s WALL (       1 calls)
     wfcinit:atom :      0.00s CPU      0.00s WALL (      10 calls)
     wfcinit:wfcr :      0.02s CPU      0.02s WALL (      10 calls)
     potinit      :      0.16s CPU      0.17s WALL (       1 calls)
     hinit0       :      0.23s CPU      0.26s WALL (       1 calls)

     Called by electrons:
     c_bands      :      1.95s CPU      6.06s WALL (      11 calls)
     sum_band     :      0.14s CPU      0.16s WALL (      11 calls)
     v_of_rho     :      0.13s CPU      0.17s WALL (      12 calls)
     v_h          :      0.01s CPU      0.01s WALL (      12 calls)
     v_xc         :      0.14s CPU      0.19s WALL (      14 calls)
     newd         :      0.02s CPU      0.02s WALL (      12 calls)
     mix_rho      :      0.01s CPU      0.01s WALL (      11 calls)

     Called by c_bands:
     init_us_2    :      0.01s CPU      0.01s WALL (     250 calls)
     cegterg      :      0.61s CPU      0.68s WALL (     110 calls)

     Called by sum_band:
     sum_band:wei :      0.01s CPU      0.01s WALL (      11 calls)
     sum_band:loo :      0.09s CPU      0.09s WALL (      11 calls)
     sum_band:buf :      0.00s CPU      0.00s WALL (     110 calls)
     sum_band:ini :      0.00s CPU      0.00s WALL (     110 calls)
     sum_band:cal :      0.00s CPU      0.00s WALL (     110 calls)
     sum_band:bec :      0.00s CPU      0.00s WALL (     110 calls)
     addusdens    :      0.02s CPU      0.02s WALL (      11 calls)
                                        0.00s GPU  (      11 calls)
     addusd:skk   :      0.00s CPU      0.00s WALL (      11 calls)
                                        0.00s GPU  (      11 calls)

     Called by *egterg:
     cdiaghg      :      0.08s CPU      0.08s WALL (     538 calls)
     cegterg:over :      0.02s CPU      0.02s WALL (     428 calls)
     cegterg:upda :      0.01s CPU      0.01s WALL (     428 calls)
     cegterg:last :      0.01s CPU      0.01s WALL (     282 calls)
     h_psi        :      0.49s CPU      0.55s WALL (     548 calls)
     s_psi        :      0.00s CPU      0.01s WALL (     548 calls)
     g_psi        :      0.00s CPU      0.00s WALL (     428 calls)

     Called by h_psi:
     h_psi:calbec :      0.02s CPU      0.02s WALL (     548 calls)
     vloc_psi     :      0.46s CPU      0.52s WALL (     548 calls)
     add_vuspsi   :      0.01s CPU      0.01s WALL (     548 calls)

     General routines
     calbec       :      0.03s CPU      0.03s WALL (     708 calls)
     fft          :      0.23s CPU      0.28s WALL (     179 calls)
     ffts         :      0.14s CPU      0.15s WALL (      23 calls)
     fftw         :      0.44s CPU      0.49s WALL (    9710 calls)
     interpolate  :      0.14s CPU      0.15s WALL (      12 calls)

     Parallel routines

     PWSCF        :      3.17s CPU      9.06s WALL


   This run was terminated on:   5:50:45  11May2025            

=------------------------------------------------------------------------------=
   JOB DONE.
=------------------------------------------------------------------------------=
