
     Program PWSCF v.7.3.1 starts on 13May2025 at 14: 6:20 

     This program is part of the open-source Quantum ESPRESSO suite
     for quantum simulation of materials; please cite
         "P. Giannozzi et al., J. Phys.:Condens. Matter 21 395502 (2009);
         "P. Giannozzi et al., J. Phys.:Condens. Matter 29 465901 (2017);
         "P. Giannozzi et al., J. Chem. Phys. 152 154105 (2020);
          URL http://www.quantum-espresso.org", 
     in publications or presentations arising from this work. More details at
     http://www.quantum-espresso.org/quote

     Parallel version (MPI & OpenMP), running on      16 processor cores
     Number of MPI processes:                 4
     Threads/MPI process:                     4

     MPI processes distributed on     1 nodes
     444278 MiB available memory on the printing compute node when the environment starts

     Waiting for input...
     Reading input from standard input

     Current dimensions of program PWSCF are:
     Max number of different atomic species (ntypx) = 10
     Max number of k-points (npk) =  40000
     Max angular momentum in pseudopotentials (lmaxx) =  4
     file Fe.pbe-spn-kjpaw_psl.1.0.0.UPF: wavefunction(s)  3P 3D renormalized
     Found identity + ( -0.5000 -0.5000 -0.5000) symmetry
     This is a supercell, fractional translations are disabled
     Message from routine setup:
     using ibrav=0 with symmetry is DISCOURAGED, use correct ibrav instead

     R & G space division:  proc/nbgrp/npool/nimage =       4
     Subspace diagonalization in iterative solution of the eigenvalue problem:
     a serial algorithm will be used


     Parallelization info
     --------------------
     sticks:   dense  smooth     PW     G-vecs:    dense   smooth      PW
     Min         633     211     63                23857     4581     767
     Max         635     212     64                23859     4582     769
     Sum        2537     845    253                95433    18325    3071

     Using Slab Decomposition



     bravais-lattice index     =            0
     lattice parameter (alat)  =       5.4199  a.u.
     unit-cell volume          =     159.2133 (a.u.)^3
     number of atoms/cell      =            2
     number of atomic types    =            1
     number of electrons       =        32.00
     number of Kohn-Sham states=           20
     kinetic-energy cutoff     =      90.0000  Ry
     charge density cutoff     =    1080.0000  Ry
     scf convergence threshold =      1.0E-08
     mixing beta               =       0.2000
     number of iterations used =            8  plain     mixing
     Exchange-correlation= SLA  PW   PBX  PBC
                           (   1   4   3   4   0   0   0)

     celldm(1)=   5.419923  celldm(2)=   0.000000  celldm(3)=   0.000000
     celldm(4)=   0.000000  celldm(5)=   0.000000  celldm(6)=   0.000000

     crystal axes: (cart. coord. in units of alat)
               a(1) = (   1.000000   0.000000   0.000000 )  
               a(2) = (   0.000000   1.000000   0.000000 )  
               a(3) = (   0.000000   0.000000   1.000000 )  

     reciprocal axes: (cart. coord. in units 2 pi/alat)
               b(1) = (  1.000000  0.000000  0.000000 )  
               b(2) = (  0.000000  1.000000  0.000000 )  
               b(3) = (  0.000000  0.000000  1.000000 )  


     PseudoPot. # 1 for Fe read from file:
     ./pseudo/Fe.pbe-spn-kjpaw_psl.1.0.0.UPF
     MD5 check sum: fc81f059e5c5069939230b1155715ae8
     Pseudo is Projector augmented-wave + core cor, Zval = 16.0
     Generated using &quot;atomic&quot; code by A. Dal Corso  v.6.3
     Shape of augmentation charge: PSQ
     Using radial grid of 1191 points,  6 beta functions with: 
                l(1) =   0
                l(2) =   0
                l(3) =   1
                l(4) =   1
                l(5) =   2
                l(6) =   2
     Q(r) pseudized with 0 coefficients 


     atomic species   valence    mass     pseudopotential
     Fe               16.00    55.84500     Fe( 1.00)

     Starting magnetic structure 
     atomic species   magnetization
     Fe              0.400

     48 Sym. Ops., with inversion, found


                                    s                        frac. trans.

      isym =  1     identity                                     

 cryst.   s( 1) = (     1          0          0      )
                  (     0          1          0      )
                  (     0          0          1      )

 cart.    s( 1) = (  1.0000000  0.0000000  0.0000000 )
                  (  0.0000000  1.0000000  0.0000000 )
                  (  0.0000000  0.0000000  1.0000000 )


      isym =  2     180 deg rotation - cart. axis [0,0,1]        

 cryst.   s( 2) = (    -1          0          0      )
                  (     0         -1          0      )
                  (     0          0          1      )

 cart.    s( 2) = ( -1.0000000  0.0000000  0.0000000 )
                  (  0.0000000 -1.0000000  0.0000000 )
                  (  0.0000000  0.0000000  1.0000000 )


      isym =  3     180 deg rotation - cart. axis [0,1,0]        

 cryst.   s( 3) = (    -1          0          0      )
                  (     0          1          0      )
                  (     0          0         -1      )

 cart.    s( 3) = ( -1.0000000  0.0000000  0.0000000 )
                  (  0.0000000  1.0000000  0.0000000 )
                  (  0.0000000  0.0000000 -1.0000000 )


      isym =  4     180 deg rotation - cart. axis [1,0,0]        

 cryst.   s( 4) = (     1          0          0      )
                  (     0         -1          0      )
                  (     0          0         -1      )

 cart.    s( 4) = (  1.0000000  0.0000000  0.0000000 )
                  (  0.0000000 -1.0000000  0.0000000 )
                  (  0.0000000  0.0000000 -1.0000000 )


      isym =  5     180 deg rotation - cart. axis [1,1,0]        

 cryst.   s( 5) = (     0          1          0      )
                  (     1          0          0      )
                  (     0          0         -1      )

 cart.    s( 5) = (  0.0000000  1.0000000  0.0000000 )
                  (  1.0000000  0.0000000  0.0000000 )
                  (  0.0000000  0.0000000 -1.0000000 )


      isym =  6     180 deg rotation - cart. axis [1,-1,0]       

 cryst.   s( 6) = (     0         -1          0      )
                  (    -1          0          0      )
                  (     0          0         -1      )

 cart.    s( 6) = (  0.0000000 -1.0000000  0.0000000 )
                  ( -1.0000000  0.0000000  0.0000000 )
                  (  0.0000000  0.0000000 -1.0000000 )


      isym =  7      90 deg rotation - cart. axis [0,0,-1]       

 cryst.   s( 7) = (     0         -1          0      )
                  (     1          0          0      )
                  (     0          0          1      )

 cart.    s( 7) = (  0.0000000  1.0000000  0.0000000 )
                  ( -1.0000000  0.0000000  0.0000000 )
                  (  0.0000000  0.0000000  1.0000000 )


      isym =  8      90 deg rotation - cart. axis [0,0,1]        

 cryst.   s( 8) = (     0          1          0      )
                  (    -1          0          0      )
                  (     0          0          1      )

 cart.    s( 8) = (  0.0000000 -1.0000000  0.0000000 )
                  (  1.0000000  0.0000000  0.0000000 )
                  (  0.0000000  0.0000000  1.0000000 )


      isym =  9     180 deg rotation - cart. axis [1,0,1]        

 cryst.   s( 9) = (     0          0          1      )
                  (     0         -1          0      )
                  (     1          0          0      )

 cart.    s( 9) = (  0.0000000  0.0000000  1.0000000 )
                  (  0.0000000 -1.0000000  0.0000000 )
                  (  1.0000000  0.0000000  0.0000000 )


      isym = 10     180 deg rotation - cart. axis [-1,0,1]       

 cryst.   s(10) = (     0          0         -1      )
                  (     0         -1          0      )
                  (    -1          0          0      )

 cart.    s(10) = (  0.0000000  0.0000000 -1.0000000 )
                  (  0.0000000 -1.0000000  0.0000000 )
                  ( -1.0000000  0.0000000  0.0000000 )


      isym = 11      90 deg rotation - cart. axis [0,1,0]        

 cryst.   s(11) = (     0          0         -1      )
                  (     0          1          0      )
                  (     1          0          0      )

 cart.    s(11) = (  0.0000000  0.0000000  1.0000000 )
                  (  0.0000000  1.0000000  0.0000000 )
                  ( -1.0000000  0.0000000  0.0000000 )


      isym = 12      90 deg rotation - cart. axis [0,-1,0]       

 cryst.   s(12) = (     0          0          1      )
                  (     0          1          0      )
                  (    -1          0          0      )

 cart.    s(12) = (  0.0000000  0.0000000 -1.0000000 )
                  (  0.0000000  1.0000000  0.0000000 )
                  (  1.0000000  0.0000000  0.0000000 )


      isym = 13     180 deg rotation - cart. axis [0,1,1]        

 cryst.   s(13) = (    -1          0          0      )
                  (     0          0          1      )
                  (     0          1          0      )

 cart.    s(13) = ( -1.0000000  0.0000000  0.0000000 )
                  (  0.0000000  0.0000000  1.0000000 )
                  (  0.0000000  1.0000000  0.0000000 )


      isym = 14     180 deg rotation - cart. axis [0,1,-1]       

 cryst.   s(14) = (    -1          0          0      )
                  (     0          0         -1      )
                  (     0         -1          0      )

 cart.    s(14) = ( -1.0000000  0.0000000  0.0000000 )
                  (  0.0000000  0.0000000 -1.0000000 )
                  (  0.0000000 -1.0000000  0.0000000 )


      isym = 15      90 deg rotation - cart. axis [-1,0,0]       

 cryst.   s(15) = (     1          0          0      )
                  (     0          0         -1      )
                  (     0          1          0      )

 cart.    s(15) = (  1.0000000  0.0000000  0.0000000 )
                  (  0.0000000  0.0000000  1.0000000 )
                  (  0.0000000 -1.0000000  0.0000000 )


      isym = 16      90 deg rotation - cart. axis [1,0,0]        

 cryst.   s(16) = (     1          0          0      )
                  (     0          0          1      )
                  (     0         -1          0      )

 cart.    s(16) = (  1.0000000  0.0000000  0.0000000 )
                  (  0.0000000  0.0000000 -1.0000000 )
                  (  0.0000000  1.0000000  0.0000000 )


      isym = 17     120 deg rotation - cart. axis [-1,-1,-1]     

 cryst.   s(17) = (     0          0          1      )
                  (     1          0          0      )
                  (     0          1          0      )

 cart.    s(17) = (  0.0000000  1.0000000  0.0000000 )
                  (  0.0000000  0.0000000  1.0000000 )
                  (  1.0000000  0.0000000  0.0000000 )


      isym = 18     120 deg rotation - cart. axis [-1,1,1]       

 cryst.   s(18) = (     0          0         -1      )
                  (    -1          0          0      )
                  (     0          1          0      )

 cart.    s(18) = (  0.0000000 -1.0000000  0.0000000 )
                  (  0.0000000  0.0000000  1.0000000 )
                  ( -1.0000000  0.0000000  0.0000000 )


      isym = 19     120 deg rotation - cart. axis [1,1,-1]       

 cryst.   s(19) = (     0          0         -1      )
                  (     1          0          0      )
                  (     0         -1          0      )

 cart.    s(19) = (  0.0000000  1.0000000  0.0000000 )
                  (  0.0000000  0.0000000 -1.0000000 )
                  ( -1.0000000  0.0000000  0.0000000 )


      isym = 20     120 deg rotation - cart. axis [1,-1,1]       

 cryst.   s(20) = (     0          0          1      )
                  (    -1          0          0      )
                  (     0         -1          0      )

 cart.    s(20) = (  0.0000000 -1.0000000  0.0000000 )
                  (  0.0000000  0.0000000 -1.0000000 )
                  (  1.0000000  0.0000000  0.0000000 )


      isym = 21     120 deg rotation - cart. axis [1,1,1]        

 cryst.   s(21) = (     0          1          0      )
                  (     0          0          1      )
                  (     1          0          0      )

 cart.    s(21) = (  0.0000000  0.0000000  1.0000000 )
                  (  1.0000000  0.0000000  0.0000000 )
                  (  0.0000000  1.0000000  0.0000000 )


      isym = 22     120 deg rotation - cart. axis [-1,1,-1]      

 cryst.   s(22) = (     0         -1          0      )
                  (     0          0         -1      )
                  (     1          0          0      )

 cart.    s(22) = (  0.0000000  0.0000000  1.0000000 )
                  ( -1.0000000  0.0000000  0.0000000 )
                  (  0.0000000 -1.0000000  0.0000000 )


      isym = 23     120 deg rotation - cart. axis [1,-1,-1]      

 cryst.   s(23) = (     0         -1          0      )
                  (     0          0          1      )
                  (    -1          0          0      )

 cart.    s(23) = (  0.0000000  0.0000000 -1.0000000 )
                  ( -1.0000000  0.0000000  0.0000000 )
                  (  0.0000000  1.0000000  0.0000000 )


      isym = 24     120 deg rotation - cart. axis [-1,-1,1]      

 cryst.   s(24) = (     0          1          0      )
                  (     0          0         -1      )
                  (    -1          0          0      )

 cart.    s(24) = (  0.0000000  0.0000000 -1.0000000 )
                  (  1.0000000  0.0000000  0.0000000 )
                  (  0.0000000 -1.0000000  0.0000000 )


      isym = 25     inversion                                    

 cryst.   s(25) = (    -1          0          0      )
                  (     0         -1          0      )
                  (     0          0         -1      )

 cart.    s(25) = ( -1.0000000  0.0000000  0.0000000 )
                  (  0.0000000 -1.0000000  0.0000000 )
                  (  0.0000000  0.0000000 -1.0000000 )


      isym = 26     inv. 180 deg rotation - cart. axis [0,0,1]   

 cryst.   s(26) = (     1          0          0      )
                  (     0          1          0      )
                  (     0          0         -1      )

 cart.    s(26) = (  1.0000000  0.0000000  0.0000000 )
                  (  0.0000000  1.0000000  0.0000000 )
                  (  0.0000000  0.0000000 -1.0000000 )


      isym = 27     inv. 180 deg rotation - cart. axis [0,1,0]   

 cryst.   s(27) = (     1          0          0      )
                  (     0         -1          0      )
                  (     0          0          1      )

 cart.    s(27) = (  1.0000000  0.0000000  0.0000000 )
                  (  0.0000000 -1.0000000  0.0000000 )
                  (  0.0000000  0.0000000  1.0000000 )


      isym = 28     inv. 180 deg rotation - cart. axis [1,0,0]   

 cryst.   s(28) = (    -1          0          0      )
                  (     0          1          0      )
                  (     0          0          1      )

 cart.    s(28) = ( -1.0000000  0.0000000  0.0000000 )
                  (  0.0000000  1.0000000  0.0000000 )
                  (  0.0000000  0.0000000  1.0000000 )


      isym = 29     inv. 180 deg rotation - cart. axis [1,1,0]   

 cryst.   s(29) = (     0         -1          0      )
                  (    -1          0          0      )
                  (     0          0          1      )

 cart.    s(29) = (  0.0000000 -1.0000000  0.0000000 )
                  ( -1.0000000  0.0000000  0.0000000 )
                  (  0.0000000  0.0000000  1.0000000 )


      isym = 30     inv. 180 deg rotation - cart. axis [1,-1,0]  

 cryst.   s(30) = (     0          1          0      )
                  (     1          0          0      )
                  (     0          0          1      )

 cart.    s(30) = (  0.0000000  1.0000000  0.0000000 )
                  (  1.0000000  0.0000000  0.0000000 )
                  (  0.0000000  0.0000000  1.0000000 )


      isym = 31     inv.  90 deg rotation - cart. axis [0,0,-1]  

 cryst.   s(31) = (     0          1          0      )
                  (    -1          0          0      )
                  (     0          0         -1      )

 cart.    s(31) = (  0.0000000 -1.0000000  0.0000000 )
                  (  1.0000000  0.0000000  0.0000000 )
                  (  0.0000000  0.0000000 -1.0000000 )


      isym = 32     inv.  90 deg rotation - cart. axis [0,0,1]   

 cryst.   s(32) = (     0         -1          0      )
                  (     1          0          0      )
                  (     0          0         -1      )

 cart.    s(32) = (  0.0000000  1.0000000  0.0000000 )
                  ( -1.0000000  0.0000000  0.0000000 )
                  (  0.0000000  0.0000000 -1.0000000 )


      isym = 33     inv. 180 deg rotation - cart. axis [1,0,1]   

 cryst.   s(33) = (     0          0         -1      )
                  (     0          1          0      )
                  (    -1          0          0      )

 cart.    s(33) = (  0.0000000  0.0000000 -1.0000000 )
                  (  0.0000000  1.0000000  0.0000000 )
                  ( -1.0000000  0.0000000  0.0000000 )


      isym = 34     inv. 180 deg rotation - cart. axis [-1,0,1]  

 cryst.   s(34) = (     0          0          1      )
                  (     0          1          0      )
                  (     1          0          0      )

 cart.    s(34) = (  0.0000000  0.0000000  1.0000000 )
                  (  0.0000000  1.0000000  0.0000000 )
                  (  1.0000000  0.0000000  0.0000000 )


      isym = 35     inv.  90 deg rotation - cart. axis [0,1,0]   

 cryst.   s(35) = (     0          0          1      )
                  (     0         -1          0      )
                  (    -1          0          0      )

 cart.    s(35) = (  0.0000000  0.0000000 -1.0000000 )
                  (  0.0000000 -1.0000000  0.0000000 )
                  (  1.0000000  0.0000000  0.0000000 )


      isym = 36     inv.  90 deg rotation - cart. axis [0,-1,0]  

 cryst.   s(36) = (     0          0         -1      )
                  (     0         -1          0      )
                  (     1          0          0      )

 cart.    s(36) = (  0.0000000  0.0000000  1.0000000 )
                  (  0.0000000 -1.0000000  0.0000000 )
                  ( -1.0000000  0.0000000  0.0000000 )


      isym = 37     inv. 180 deg rotation - cart. axis [0,1,1]   

 cryst.   s(37) = (     1          0          0      )
                  (     0          0         -1      )
                  (     0         -1          0      )

 cart.    s(37) = (  1.0000000  0.0000000  0.0000000 )
                  (  0.0000000  0.0000000 -1.0000000 )
                  (  0.0000000 -1.0000000  0.0000000 )


      isym = 38     inv. 180 deg rotation - cart. axis [0,1,-1]  

 cryst.   s(38) = (     1          0          0      )
                  (     0          0          1      )
                  (     0          1          0      )

 cart.    s(38) = (  1.0000000  0.0000000  0.0000000 )
                  (  0.0000000  0.0000000  1.0000000 )
                  (  0.0000000  1.0000000  0.0000000 )


      isym = 39     inv.  90 deg rotation - cart. axis [-1,0,0]  

 cryst.   s(39) = (    -1          0          0      )
                  (     0          0          1      )
                  (     0         -1          0      )

 cart.    s(39) = ( -1.0000000  0.0000000  0.0000000 )
                  (  0.0000000  0.0000000 -1.0000000 )
                  (  0.0000000  1.0000000  0.0000000 )


      isym = 40     inv.  90 deg rotation - cart. axis [1,0,0]   

 cryst.   s(40) = (    -1          0          0      )
                  (     0          0         -1      )
                  (     0          1          0      )

 cart.    s(40) = ( -1.0000000  0.0000000  0.0000000 )
                  (  0.0000000  0.0000000  1.0000000 )
                  (  0.0000000 -1.0000000  0.0000000 )


      isym = 41     inv. 120 deg rotation - cart. axis [-1,-1,-1]

 cryst.   s(41) = (     0          0         -1      )
                  (    -1          0          0      )
                  (     0         -1          0      )

 cart.    s(41) = (  0.0000000 -1.0000000  0.0000000 )
                  (  0.0000000  0.0000000 -1.0000000 )
                  ( -1.0000000  0.0000000  0.0000000 )


      isym = 42     inv. 120 deg rotation - cart. axis [-1,1,1]  

 cryst.   s(42) = (     0          0          1      )
                  (     1          0          0      )
                  (     0         -1          0      )

 cart.    s(42) = (  0.0000000  1.0000000  0.0000000 )
                  (  0.0000000  0.0000000 -1.0000000 )
                  (  1.0000000  0.0000000  0.0000000 )


      isym = 43     inv. 120 deg rotation - cart. axis [1,1,-1]  

 cryst.   s(43) = (     0          0          1      )
                  (    -1          0          0      )
                  (     0          1          0      )

 cart.    s(43) = (  0.0000000 -1.0000000  0.0000000 )
                  (  0.0000000  0.0000000  1.0000000 )
                  (  1.0000000  0.0000000  0.0000000 )


      isym = 44     inv. 120 deg rotation - cart. axis [1,-1,1]  

 cryst.   s(44) = (     0          0         -1      )
                  (     1          0          0      )
                  (     0          1          0      )

 cart.    s(44) = (  0.0000000  1.0000000  0.0000000 )
                  (  0.0000000  0.0000000  1.0000000 )
                  ( -1.0000000  0.0000000  0.0000000 )


      isym = 45     inv. 120 deg rotation - cart. axis [1,1,1]   

 cryst.   s(45) = (     0         -1          0      )
                  (     0          0         -1      )
                  (    -1          0          0      )

 cart.    s(45) = (  0.0000000  0.0000000 -1.0000000 )
                  ( -1.0000000  0.0000000  0.0000000 )
                  (  0.0000000 -1.0000000  0.0000000 )


      isym = 46     inv. 120 deg rotation - cart. axis [-1,1,-1] 

 cryst.   s(46) = (     0          1          0      )
                  (     0          0          1      )
                  (    -1          0          0      )

 cart.    s(46) = (  0.0000000  0.0000000 -1.0000000 )
                  (  1.0000000  0.0000000  0.0000000 )
                  (  0.0000000  1.0000000  0.0000000 )


      isym = 47     inv. 120 deg rotation - cart. axis [1,-1,-1] 

 cryst.   s(47) = (     0          1          0      )
                  (     0          0         -1      )
                  (     1          0          0      )

 cart.    s(47) = (  0.0000000  0.0000000  1.0000000 )
                  (  1.0000000  0.0000000  0.0000000 )
                  (  0.0000000 -1.0000000  0.0000000 )


      isym = 48     inv. 120 deg rotation - cart. axis [-1,-1,1] 

 cryst.   s(48) = (     0         -1          0      )
                  (     0          0          1      )
                  (     1          0          0      )

 cart.    s(48) = (  0.0000000  0.0000000  1.0000000 )
                  ( -1.0000000  0.0000000  0.0000000 )
                  (  0.0000000  1.0000000  0.0000000 )


   Cartesian axes

     site n.     atom                  positions (alat units)
         1        Fe     tau(   1) = (   0.0000000   0.0000000   0.0000000  )
         2        Fe     tau(   2) = (   0.5000000   0.5000000   0.5000000  )

   Crystallographic axes

     site n.     atom                  positions (cryst. coord.)
         1        Fe     tau(   1) = (  0.0000000  0.0000000  0.0000000  )
         2        Fe     tau(   2) = (  0.5000000  0.5000000  0.5000000  )

     number of k points=   286  Marzari-Vanderbilt smearing, width (Ry)=  0.0100
                       cart. coord. in units 2pi/alat
        k(    1) = (   0.0000000   0.0000000   0.0000000), wk =   0.0001250
        k(    2) = (   0.0000000   0.0000000   0.0500000), wk =   0.0007500
        k(    3) = (   0.0000000   0.0000000   0.1000000), wk =   0.0007500
        k(    4) = (   0.0000000   0.0000000   0.1500000), wk =   0.0007500
        k(    5) = (   0.0000000   0.0000000   0.2000000), wk =   0.0007500
        k(    6) = (   0.0000000   0.0000000   0.2500000), wk =   0.0007500
        k(    7) = (   0.0000000   0.0000000   0.3000000), wk =   0.0007500
        k(    8) = (   0.0000000   0.0000000   0.3500000), wk =   0.0007500
        k(    9) = (   0.0000000   0.0000000   0.4000000), wk =   0.0007500
        k(   10) = (   0.0000000   0.0000000   0.4500000), wk =   0.0007500
        k(   11) = (   0.0000000   0.0000000  -0.5000000), wk =   0.0003750
        k(   12) = (   0.0000000   0.0500000   0.0500000), wk =   0.0015000
        k(   13) = (   0.0000000   0.0500000   0.1000000), wk =   0.0030000
        k(   14) = (   0.0000000   0.0500000   0.1500000), wk =   0.0030000
        k(   15) = (   0.0000000   0.0500000   0.2000000), wk =   0.0030000
        k(   16) = (   0.0000000   0.0500000   0.2500000), wk =   0.0030000
        k(   17) = (   0.0000000   0.0500000   0.3000000), wk =   0.0030000
        k(   18) = (   0.0000000   0.0500000   0.3500000), wk =   0.0030000
        k(   19) = (   0.0000000   0.0500000   0.4000000), wk =   0.0030000
        k(   20) = (   0.0000000   0.0500000   0.4500000), wk =   0.0030000
        k(   21) = (   0.0000000   0.0500000  -0.5000000), wk =   0.0015000
        k(   22) = (   0.0000000   0.1000000   0.1000000), wk =   0.0015000
        k(   23) = (   0.0000000   0.1000000   0.1500000), wk =   0.0030000
        k(   24) = (   0.0000000   0.1000000   0.2000000), wk =   0.0030000
        k(   25) = (   0.0000000   0.1000000   0.2500000), wk =   0.0030000
        k(   26) = (   0.0000000   0.1000000   0.3000000), wk =   0.0030000
        k(   27) = (   0.0000000   0.1000000   0.3500000), wk =   0.0030000
        k(   28) = (   0.0000000   0.1000000   0.4000000), wk =   0.0030000
        k(   29) = (   0.0000000   0.1000000   0.4500000), wk =   0.0030000
        k(   30) = (   0.0000000   0.1000000  -0.5000000), wk =   0.0015000
        k(   31) = (   0.0000000   0.1500000   0.1500000), wk =   0.0015000
        k(   32) = (   0.0000000   0.1500000   0.2000000), wk =   0.0030000
        k(   33) = (   0.0000000   0.1500000   0.2500000), wk =   0.0030000
        k(   34) = (   0.0000000   0.1500000   0.3000000), wk =   0.0030000
        k(   35) = (   0.0000000   0.1500000   0.3500000), wk =   0.0030000
        k(   36) = (   0.0000000   0.1500000   0.4000000), wk =   0.0030000
        k(   37) = (   0.0000000   0.1500000   0.4500000), wk =   0.0030000
        k(   38) = (   0.0000000   0.1500000  -0.5000000), wk =   0.0015000
        k(   39) = (   0.0000000   0.2000000   0.2000000), wk =   0.0015000
        k(   40) = (   0.0000000   0.2000000   0.2500000), wk =   0.0030000
        k(   41) = (   0.0000000   0.2000000   0.3000000), wk =   0.0030000
        k(   42) = (   0.0000000   0.2000000   0.3500000), wk =   0.0030000
        k(   43) = (   0.0000000   0.2000000   0.4000000), wk =   0.0030000
        k(   44) = (   0.0000000   0.2000000   0.4500000), wk =   0.0030000
        k(   45) = (   0.0000000   0.2000000  -0.5000000), wk =   0.0015000
        k(   46) = (   0.0000000   0.2500000   0.2500000), wk =   0.0015000
        k(   47) = (   0.0000000   0.2500000   0.3000000), wk =   0.0030000
        k(   48) = (   0.0000000   0.2500000   0.3500000), wk =   0.0030000
        k(   49) = (   0.0000000   0.2500000   0.4000000), wk =   0.0030000
        k(   50) = (   0.0000000   0.2500000   0.4500000), wk =   0.0030000
        k(   51) = (   0.0000000   0.2500000  -0.5000000), wk =   0.0015000
        k(   52) = (   0.0000000   0.3000000   0.3000000), wk =   0.0015000
        k(   53) = (   0.0000000   0.3000000   0.3500000), wk =   0.0030000
        k(   54) = (   0.0000000   0.3000000   0.4000000), wk =   0.0030000
        k(   55) = (   0.0000000   0.3000000   0.4500000), wk =   0.0030000
        k(   56) = (   0.0000000   0.3000000  -0.5000000), wk =   0.0015000
        k(   57) = (   0.0000000   0.3500000   0.3500000), wk =   0.0015000
        k(   58) = (   0.0000000   0.3500000   0.4000000), wk =   0.0030000
        k(   59) = (   0.0000000   0.3500000   0.4500000), wk =   0.0030000
        k(   60) = (   0.0000000   0.3500000  -0.5000000), wk =   0.0015000
        k(   61) = (   0.0000000   0.4000000   0.4000000), wk =   0.0015000
        k(   62) = (   0.0000000   0.4000000   0.4500000), wk =   0.0030000
        k(   63) = (   0.0000000   0.4000000  -0.5000000), wk =   0.0015000
        k(   64) = (   0.0000000   0.4500000   0.4500000), wk =   0.0015000
        k(   65) = (   0.0000000   0.4500000  -0.5000000), wk =   0.0015000
        k(   66) = (   0.0000000  -0.5000000  -0.5000000), wk =   0.0003750
        k(   67) = (   0.0500000   0.0500000   0.0500000), wk =   0.0010000
        k(   68) = (   0.0500000   0.0500000   0.1000000), wk =   0.0030000
        k(   69) = (   0.0500000   0.0500000   0.1500000), wk =   0.0030000
        k(   70) = (   0.0500000   0.0500000   0.2000000), wk =   0.0030000
        k(   71) = (   0.0500000   0.0500000   0.2500000), wk =   0.0030000
        k(   72) = (   0.0500000   0.0500000   0.3000000), wk =   0.0030000
        k(   73) = (   0.0500000   0.0500000   0.3500000), wk =   0.0030000
        k(   74) = (   0.0500000   0.0500000   0.4000000), wk =   0.0030000
        k(   75) = (   0.0500000   0.0500000   0.4500000), wk =   0.0030000
        k(   76) = (   0.0500000   0.0500000  -0.5000000), wk =   0.0015000
        k(   77) = (   0.0500000   0.1000000   0.1000000), wk =   0.0030000
        k(   78) = (   0.0500000   0.1000000   0.1500000), wk =   0.0060000
        k(   79) = (   0.0500000   0.1000000   0.2000000), wk =   0.0060000
        k(   80) = (   0.0500000   0.1000000   0.2500000), wk =   0.0060000
        k(   81) = (   0.0500000   0.1000000   0.3000000), wk =   0.0060000
        k(   82) = (   0.0500000   0.1000000   0.3500000), wk =   0.0060000
        k(   83) = (   0.0500000   0.1000000   0.4000000), wk =   0.0060000
        k(   84) = (   0.0500000   0.1000000   0.4500000), wk =   0.0060000
        k(   85) = (   0.0500000   0.1000000  -0.5000000), wk =   0.0030000
        k(   86) = (   0.0500000   0.1500000   0.1500000), wk =   0.0030000
        k(   87) = (   0.0500000   0.1500000   0.2000000), wk =   0.0060000
        k(   88) = (   0.0500000   0.1500000   0.2500000), wk =   0.0060000
        k(   89) = (   0.0500000   0.1500000   0.3000000), wk =   0.0060000
        k(   90) = (   0.0500000   0.1500000   0.3500000), wk =   0.0060000
        k(   91) = (   0.0500000   0.1500000   0.4000000), wk =   0.0060000
        k(   92) = (   0.0500000   0.1500000   0.4500000), wk =   0.0060000
        k(   93) = (   0.0500000   0.1500000  -0.5000000), wk =   0.0030000
        k(   94) = (   0.0500000   0.2000000   0.2000000), wk =   0.0030000
        k(   95) = (   0.0500000   0.2000000   0.2500000), wk =   0.0060000
        k(   96) = (   0.0500000   0.2000000   0.3000000), wk =   0.0060000
        k(   97) = (   0.0500000   0.2000000   0.3500000), wk =   0.0060000
        k(   98) = (   0.0500000   0.2000000   0.4000000), wk =   0.0060000
        k(   99) = (   0.0500000   0.2000000   0.4500000), wk =   0.0060000
        k(  100) = (   0.0500000   0.2000000  -0.5000000), wk =   0.0030000
        k(  101) = (   0.0500000   0.2500000   0.2500000), wk =   0.0030000
        k(  102) = (   0.0500000   0.2500000   0.3000000), wk =   0.0060000
        k(  103) = (   0.0500000   0.2500000   0.3500000), wk =   0.0060000
        k(  104) = (   0.0500000   0.2500000   0.4000000), wk =   0.0060000
        k(  105) = (   0.0500000   0.2500000   0.4500000), wk =   0.0060000
        k(  106) = (   0.0500000   0.2500000  -0.5000000), wk =   0.0030000
        k(  107) = (   0.0500000   0.3000000   0.3000000), wk =   0.0030000
        k(  108) = (   0.0500000   0.3000000   0.3500000), wk =   0.0060000
        k(  109) = (   0.0500000   0.3000000   0.4000000), wk =   0.0060000
        k(  110) = (   0.0500000   0.3000000   0.4500000), wk =   0.0060000
        k(  111) = (   0.0500000   0.3000000  -0.5000000), wk =   0.0030000
        k(  112) = (   0.0500000   0.3500000   0.3500000), wk =   0.0030000
        k(  113) = (   0.0500000   0.3500000   0.4000000), wk =   0.0060000
        k(  114) = (   0.0500000   0.3500000   0.4500000), wk =   0.0060000
        k(  115) = (   0.0500000   0.3500000  -0.5000000), wk =   0.0030000
        k(  116) = (   0.0500000   0.4000000   0.4000000), wk =   0.0030000
        k(  117) = (   0.0500000   0.4000000   0.4500000), wk =   0.0060000
        k(  118) = (   0.0500000   0.4000000  -0.5000000), wk =   0.0030000
        k(  119) = (   0.0500000   0.4500000   0.4500000), wk =   0.0030000
        k(  120) = (   0.0500000   0.4500000  -0.5000000), wk =   0.0030000
        k(  121) = (   0.0500000  -0.5000000  -0.5000000), wk =   0.0007500
        k(  122) = (   0.1000000   0.1000000   0.1000000), wk =   0.0010000
        k(  123) = (   0.1000000   0.1000000   0.1500000), wk =   0.0030000
        k(  124) = (   0.1000000   0.1000000   0.2000000), wk =   0.0030000
        k(  125) = (   0.1000000   0.1000000   0.2500000), wk =   0.0030000
        k(  126) = (   0.1000000   0.1000000   0.3000000), wk =   0.0030000
        k(  127) = (   0.1000000   0.1000000   0.3500000), wk =   0.0030000
        k(  128) = (   0.1000000   0.1000000   0.4000000), wk =   0.0030000
        k(  129) = (   0.1000000   0.1000000   0.4500000), wk =   0.0030000
        k(  130) = (   0.1000000   0.1000000  -0.5000000), wk =   0.0015000
        k(  131) = (   0.1000000   0.1500000   0.1500000), wk =   0.0030000
        k(  132) = (   0.1000000   0.1500000   0.2000000), wk =   0.0060000
        k(  133) = (   0.1000000   0.1500000   0.2500000), wk =   0.0060000
        k(  134) = (   0.1000000   0.1500000   0.3000000), wk =   0.0060000
        k(  135) = (   0.1000000   0.1500000   0.3500000), wk =   0.0060000
        k(  136) = (   0.1000000   0.1500000   0.4000000), wk =   0.0060000
        k(  137) = (   0.1000000   0.1500000   0.4500000), wk =   0.0060000
        k(  138) = (   0.1000000   0.1500000  -0.5000000), wk =   0.0030000
        k(  139) = (   0.1000000   0.2000000   0.2000000), wk =   0.0030000
        k(  140) = (   0.1000000   0.2000000   0.2500000), wk =   0.0060000
        k(  141) = (   0.1000000   0.2000000   0.3000000), wk =   0.0060000
        k(  142) = (   0.1000000   0.2000000   0.3500000), wk =   0.0060000
        k(  143) = (   0.1000000   0.2000000   0.4000000), wk =   0.0060000
        k(  144) = (   0.1000000   0.2000000   0.4500000), wk =   0.0060000
        k(  145) = (   0.1000000   0.2000000  -0.5000000), wk =   0.0030000
        k(  146) = (   0.1000000   0.2500000   0.2500000), wk =   0.0030000
        k(  147) = (   0.1000000   0.2500000   0.3000000), wk =   0.0060000
        k(  148) = (   0.1000000   0.2500000   0.3500000), wk =   0.0060000
        k(  149) = (   0.1000000   0.2500000   0.4000000), wk =   0.0060000
        k(  150) = (   0.1000000   0.2500000   0.4500000), wk =   0.0060000
        k(  151) = (   0.1000000   0.2500000  -0.5000000), wk =   0.0030000
        k(  152) = (   0.1000000   0.3000000   0.3000000), wk =   0.0030000
        k(  153) = (   0.1000000   0.3000000   0.3500000), wk =   0.0060000
        k(  154) = (   0.1000000   0.3000000   0.4000000), wk =   0.0060000
        k(  155) = (   0.1000000   0.3000000   0.4500000), wk =   0.0060000
        k(  156) = (   0.1000000   0.3000000  -0.5000000), wk =   0.0030000
        k(  157) = (   0.1000000   0.3500000   0.3500000), wk =   0.0030000
        k(  158) = (   0.1000000   0.3500000   0.4000000), wk =   0.0060000
        k(  159) = (   0.1000000   0.3500000   0.4500000), wk =   0.0060000
        k(  160) = (   0.1000000   0.3500000  -0.5000000), wk =   0.0030000
        k(  161) = (   0.1000000   0.4000000   0.4000000), wk =   0.0030000
        k(  162) = (   0.1000000   0.4000000   0.4500000), wk =   0.0060000
        k(  163) = (   0.1000000   0.4000000  -0.5000000), wk =   0.0030000
        k(  164) = (   0.1000000   0.4500000   0.4500000), wk =   0.0030000
        k(  165) = (   0.1000000   0.4500000  -0.5000000), wk =   0.0030000
        k(  166) = (   0.1000000  -0.5000000  -0.5000000), wk =   0.0007500
        k(  167) = (   0.1500000   0.1500000   0.1500000), wk =   0.0010000
        k(  168) = (   0.1500000   0.1500000   0.2000000), wk =   0.0030000
        k(  169) = (   0.1500000   0.1500000   0.2500000), wk =   0.0030000
        k(  170) = (   0.1500000   0.1500000   0.3000000), wk =   0.0030000
        k(  171) = (   0.1500000   0.1500000   0.3500000), wk =   0.0030000
        k(  172) = (   0.1500000   0.1500000   0.4000000), wk =   0.0030000
        k(  173) = (   0.1500000   0.1500000   0.4500000), wk =   0.0030000
        k(  174) = (   0.1500000   0.1500000  -0.5000000), wk =   0.0015000
        k(  175) = (   0.1500000   0.2000000   0.2000000), wk =   0.0030000
        k(  176) = (   0.1500000   0.2000000   0.2500000), wk =   0.0060000
        k(  177) = (   0.1500000   0.2000000   0.3000000), wk =   0.0060000
        k(  178) = (   0.1500000   0.2000000   0.3500000), wk =   0.0060000
        k(  179) = (   0.1500000   0.2000000   0.4000000), wk =   0.0060000
        k(  180) = (   0.1500000   0.2000000   0.4500000), wk =   0.0060000
        k(  181) = (   0.1500000   0.2000000  -0.5000000), wk =   0.0030000
        k(  182) = (   0.1500000   0.2500000   0.2500000), wk =   0.0030000
        k(  183) = (   0.1500000   0.2500000   0.3000000), wk =   0.0060000
        k(  184) = (   0.1500000   0.2500000   0.3500000), wk =   0.0060000
        k(  185) = (   0.1500000   0.2500000   0.4000000), wk =   0.0060000
        k(  186) = (   0.1500000   0.2500000   0.4500000), wk =   0.0060000
        k(  187) = (   0.1500000   0.2500000  -0.5000000), wk =   0.0030000
        k(  188) = (   0.1500000   0.3000000   0.3000000), wk =   0.0030000
        k(  189) = (   0.1500000   0.3000000   0.3500000), wk =   0.0060000
        k(  190) = (   0.1500000   0.3000000   0.4000000), wk =   0.0060000
        k(  191) = (   0.1500000   0.3000000   0.4500000), wk =   0.0060000
        k(  192) = (   0.1500000   0.3000000  -0.5000000), wk =   0.0030000
        k(  193) = (   0.1500000   0.3500000   0.3500000), wk =   0.0030000
        k(  194) = (   0.1500000   0.3500000   0.4000000), wk =   0.0060000
        k(  195) = (   0.1500000   0.3500000   0.4500000), wk =   0.0060000
        k(  196) = (   0.1500000   0.3500000  -0.5000000), wk =   0.0030000
        k(  197) = (   0.1500000   0.4000000   0.4000000), wk =   0.0030000
        k(  198) = (   0.1500000   0.4000000   0.4500000), wk =   0.0060000
        k(  199) = (   0.1500000   0.4000000  -0.5000000), wk =   0.0030000
        k(  200) = (   0.1500000   0.4500000   0.4500000), wk =   0.0030000
        k(  201) = (   0.1500000   0.4500000  -0.5000000), wk =   0.0030000
        k(  202) = (   0.1500000  -0.5000000  -0.5000000), wk =   0.0007500
        k(  203) = (   0.2000000   0.2000000   0.2000000), wk =   0.0010000
        k(  204) = (   0.2000000   0.2000000   0.2500000), wk =   0.0030000
        k(  205) = (   0.2000000   0.2000000   0.3000000), wk =   0.0030000
        k(  206) = (   0.2000000   0.2000000   0.3500000), wk =   0.0030000
        k(  207) = (   0.2000000   0.2000000   0.4000000), wk =   0.0030000
        k(  208) = (   0.2000000   0.2000000   0.4500000), wk =   0.0030000
        k(  209) = (   0.2000000   0.2000000  -0.5000000), wk =   0.0015000
        k(  210) = (   0.2000000   0.2500000   0.2500000), wk =   0.0030000
        k(  211) = (   0.2000000   0.2500000   0.3000000), wk =   0.0060000
        k(  212) = (   0.2000000   0.2500000   0.3500000), wk =   0.0060000
        k(  213) = (   0.2000000   0.2500000   0.4000000), wk =   0.0060000
        k(  214) = (   0.2000000   0.2500000   0.4500000), wk =   0.0060000
        k(  215) = (   0.2000000   0.2500000  -0.5000000), wk =   0.0030000
        k(  216) = (   0.2000000   0.3000000   0.3000000), wk =   0.0030000
        k(  217) = (   0.2000000   0.3000000   0.3500000), wk =   0.0060000
        k(  218) = (   0.2000000   0.3000000   0.4000000), wk =   0.0060000
        k(  219) = (   0.2000000   0.3000000   0.4500000), wk =   0.0060000
        k(  220) = (   0.2000000   0.3000000  -0.5000000), wk =   0.0030000
        k(  221) = (   0.2000000   0.3500000   0.3500000), wk =   0.0030000
        k(  222) = (   0.2000000   0.3500000   0.4000000), wk =   0.0060000
        k(  223) = (   0.2000000   0.3500000   0.4500000), wk =   0.0060000
        k(  224) = (   0.2000000   0.3500000  -0.5000000), wk =   0.0030000
        k(  225) = (   0.2000000   0.4000000   0.4000000), wk =   0.0030000
        k(  226) = (   0.2000000   0.4000000   0.4500000), wk =   0.0060000
        k(  227) = (   0.2000000   0.4000000  -0.5000000), wk =   0.0030000
        k(  228) = (   0.2000000   0.4500000   0.4500000), wk =   0.0030000
        k(  229) = (   0.2000000   0.4500000  -0.5000000), wk =   0.0030000
        k(  230) = (   0.2000000  -0.5000000  -0.5000000), wk =   0.0007500
        k(  231) = (   0.2500000   0.2500000   0.2500000), wk =   0.0010000
        k(  232) = (   0.2500000   0.2500000   0.3000000), wk =   0.0030000
        k(  233) = (   0.2500000   0.2500000   0.3500000), wk =   0.0030000
        k(  234) = (   0.2500000   0.2500000   0.4000000), wk =   0.0030000
        k(  235) = (   0.2500000   0.2500000   0.4500000), wk =   0.0030000
        k(  236) = (   0.2500000   0.2500000  -0.5000000), wk =   0.0015000
        k(  237) = (   0.2500000   0.3000000   0.3000000), wk =   0.0030000
        k(  238) = (   0.2500000   0.3000000   0.3500000), wk =   0.0060000
        k(  239) = (   0.2500000   0.3000000   0.4000000), wk =   0.0060000
        k(  240) = (   0.2500000   0.3000000   0.4500000), wk =   0.0060000
        k(  241) = (   0.2500000   0.3000000  -0.5000000), wk =   0.0030000
        k(  242) = (   0.2500000   0.3500000   0.3500000), wk =   0.0030000
        k(  243) = (   0.2500000   0.3500000   0.4000000), wk =   0.0060000
        k(  244) = (   0.2500000   0.3500000   0.4500000), wk =   0.0060000
        k(  245) = (   0.2500000   0.3500000  -0.5000000), wk =   0.0030000
        k(  246) = (   0.2500000   0.4000000   0.4000000), wk =   0.0030000
        k(  247) = (   0.2500000   0.4000000   0.4500000), wk =   0.0060000
        k(  248) = (   0.2500000   0.4000000  -0.5000000), wk =   0.0030000
        k(  249) = (   0.2500000   0.4500000   0.4500000), wk =   0.0030000
        k(  250) = (   0.2500000   0.4500000  -0.5000000), wk =   0.0030000
        k(  251) = (   0.2500000  -0.5000000  -0.5000000), wk =   0.0007500
        k(  252) = (   0.3000000   0.3000000   0.3000000), wk =   0.0010000
        k(  253) = (   0.3000000   0.3000000   0.3500000), wk =   0.0030000
        k(  254) = (   0.3000000   0.3000000   0.4000000), wk =   0.0030000
        k(  255) = (   0.3000000   0.3000000   0.4500000), wk =   0.0030000
        k(  256) = (   0.3000000   0.3000000  -0.5000000), wk =   0.0015000
        k(  257) = (   0.3000000   0.3500000   0.3500000), wk =   0.0030000
        k(  258) = (   0.3000000   0.3500000   0.4000000), wk =   0.0060000
        k(  259) = (   0.3000000   0.3500000   0.4500000), wk =   0.0060000
        k(  260) = (   0.3000000   0.3500000  -0.5000000), wk =   0.0030000
        k(  261) = (   0.3000000   0.4000000   0.4000000), wk =   0.0030000
        k(  262) = (   0.3000000   0.4000000   0.4500000), wk =   0.0060000
        k(  263) = (   0.3000000   0.4000000  -0.5000000), wk =   0.0030000
        k(  264) = (   0.3000000   0.4500000   0.4500000), wk =   0.0030000
        k(  265) = (   0.3000000   0.4500000  -0.5000000), wk =   0.0030000
        k(  266) = (   0.3000000  -0.5000000  -0.5000000), wk =   0.0007500
        k(  267) = (   0.3500000   0.3500000   0.3500000), wk =   0.0010000
        k(  268) = (   0.3500000   0.3500000   0.4000000), wk =   0.0030000
        k(  269) = (   0.3500000   0.3500000   0.4500000), wk =   0.0030000
        k(  270) = (   0.3500000   0.3500000  -0.5000000), wk =   0.0015000
        k(  271) = (   0.3500000   0.4000000   0.4000000), wk =   0.0030000
        k(  272) = (   0.3500000   0.4000000   0.4500000), wk =   0.0060000
        k(  273) = (   0.3500000   0.4000000  -0.5000000), wk =   0.0030000
        k(  274) = (   0.3500000   0.4500000   0.4500000), wk =   0.0030000
        k(  275) = (   0.3500000   0.4500000  -0.5000000), wk =   0.0030000
        k(  276) = (   0.3500000  -0.5000000  -0.5000000), wk =   0.0007500
        k(  277) = (   0.4000000   0.4000000   0.4000000), wk =   0.0010000
        k(  278) = (   0.4000000   0.4000000   0.4500000), wk =   0.0030000
        k(  279) = (   0.4000000   0.4000000  -0.5000000), wk =   0.0015000
        k(  280) = (   0.4000000   0.4500000   0.4500000), wk =   0.0030000
        k(  281) = (   0.4000000   0.4500000  -0.5000000), wk =   0.0030000
        k(  282) = (   0.4000000  -0.5000000  -0.5000000), wk =   0.0007500
        k(  283) = (   0.4500000   0.4500000   0.4500000), wk =   0.0010000
        k(  284) = (   0.4500000   0.4500000  -0.5000000), wk =   0.0015000
        k(  285) = (   0.4500000  -0.5000000  -0.5000000), wk =   0.0007500
        k(  286) = (  -0.5000000  -0.5000000  -0.5000000), wk =   0.0001250

                       cryst. coord.
        k(    1) = (   0.0000000   0.0000000   0.0000000), wk =   0.0001250
        k(    2) = (   0.0000000   0.0000000   0.0500000), wk =   0.0007500
        k(    3) = (   0.0000000   0.0000000   0.1000000), wk =   0.0007500
        k(    4) = (   0.0000000   0.0000000   0.1500000), wk =   0.0007500
        k(    5) = (   0.0000000   0.0000000   0.2000000), wk =   0.0007500
        k(    6) = (   0.0000000   0.0000000   0.2500000), wk =   0.0007500
        k(    7) = (   0.0000000   0.0000000   0.3000000), wk =   0.0007500
        k(    8) = (   0.0000000   0.0000000   0.3500000), wk =   0.0007500
        k(    9) = (   0.0000000   0.0000000   0.4000000), wk =   0.0007500
        k(   10) = (   0.0000000   0.0000000   0.4500000), wk =   0.0007500
        k(   11) = (   0.0000000   0.0000000  -0.5000000), wk =   0.0003750
        k(   12) = (   0.0000000   0.0500000   0.0500000), wk =   0.0015000
        k(   13) = (   0.0000000   0.0500000   0.1000000), wk =   0.0030000
        k(   14) = (   0.0000000   0.0500000   0.1500000), wk =   0.0030000
        k(   15) = (   0.0000000   0.0500000   0.2000000), wk =   0.0030000
        k(   16) = (   0.0000000   0.0500000   0.2500000), wk =   0.0030000
        k(   17) = (   0.0000000   0.0500000   0.3000000), wk =   0.0030000
        k(   18) = (   0.0000000   0.0500000   0.3500000), wk =   0.0030000
        k(   19) = (   0.0000000   0.0500000   0.4000000), wk =   0.0030000
        k(   20) = (   0.0000000   0.0500000   0.4500000), wk =   0.0030000
        k(   21) = (   0.0000000   0.0500000  -0.5000000), wk =   0.0015000
        k(   22) = (   0.0000000   0.1000000   0.1000000), wk =   0.0015000
        k(   23) = (   0.0000000   0.1000000   0.1500000), wk =   0.0030000
        k(   24) = (   0.0000000   0.1000000   0.2000000), wk =   0.0030000
        k(   25) = (   0.0000000   0.1000000   0.2500000), wk =   0.0030000
        k(   26) = (   0.0000000   0.1000000   0.3000000), wk =   0.0030000
        k(   27) = (   0.0000000   0.1000000   0.3500000), wk =   0.0030000
        k(   28) = (   0.0000000   0.1000000   0.4000000), wk =   0.0030000
        k(   29) = (   0.0000000   0.1000000   0.4500000), wk =   0.0030000
        k(   30) = (   0.0000000   0.1000000  -0.5000000), wk =   0.0015000
        k(   31) = (   0.0000000   0.1500000   0.1500000), wk =   0.0015000
        k(   32) = (   0.0000000   0.1500000   0.2000000), wk =   0.0030000
        k(   33) = (   0.0000000   0.1500000   0.2500000), wk =   0.0030000
        k(   34) = (   0.0000000   0.1500000   0.3000000), wk =   0.0030000
        k(   35) = (   0.0000000   0.1500000   0.3500000), wk =   0.0030000
        k(   36) = (   0.0000000   0.1500000   0.4000000), wk =   0.0030000
        k(   37) = (   0.0000000   0.1500000   0.4500000), wk =   0.0030000
        k(   38) = (   0.0000000   0.1500000  -0.5000000), wk =   0.0015000
        k(   39) = (   0.0000000   0.2000000   0.2000000), wk =   0.0015000
        k(   40) = (   0.0000000   0.2000000   0.2500000), wk =   0.0030000
        k(   41) = (   0.0000000   0.2000000   0.3000000), wk =   0.0030000
        k(   42) = (   0.0000000   0.2000000   0.3500000), wk =   0.0030000
        k(   43) = (   0.0000000   0.2000000   0.4000000), wk =   0.0030000
        k(   44) = (   0.0000000   0.2000000   0.4500000), wk =   0.0030000
        k(   45) = (   0.0000000   0.2000000  -0.5000000), wk =   0.0015000
        k(   46) = (   0.0000000   0.2500000   0.2500000), wk =   0.0015000
        k(   47) = (   0.0000000   0.2500000   0.3000000), wk =   0.0030000
        k(   48) = (   0.0000000   0.2500000   0.3500000), wk =   0.0030000
        k(   49) = (   0.0000000   0.2500000   0.4000000), wk =   0.0030000
        k(   50) = (   0.0000000   0.2500000   0.4500000), wk =   0.0030000
        k(   51) = (   0.0000000   0.2500000  -0.5000000), wk =   0.0015000
        k(   52) = (   0.0000000   0.3000000   0.3000000), wk =   0.0015000
        k(   53) = (   0.0000000   0.3000000   0.3500000), wk =   0.0030000
        k(   54) = (   0.0000000   0.3000000   0.4000000), wk =   0.0030000
        k(   55) = (   0.0000000   0.3000000   0.4500000), wk =   0.0030000
        k(   56) = (   0.0000000   0.3000000  -0.5000000), wk =   0.0015000
        k(   57) = (   0.0000000   0.3500000   0.3500000), wk =   0.0015000
        k(   58) = (   0.0000000   0.3500000   0.4000000), wk =   0.0030000
        k(   59) = (   0.0000000   0.3500000   0.4500000), wk =   0.0030000
        k(   60) = (   0.0000000   0.3500000  -0.5000000), wk =   0.0015000
        k(   61) = (   0.0000000   0.4000000   0.4000000), wk =   0.0015000
        k(   62) = (   0.0000000   0.4000000   0.4500000), wk =   0.0030000
        k(   63) = (   0.0000000   0.4000000  -0.5000000), wk =   0.0015000
        k(   64) = (   0.0000000   0.4500000   0.4500000), wk =   0.0015000
        k(   65) = (   0.0000000   0.4500000  -0.5000000), wk =   0.0015000
        k(   66) = (   0.0000000  -0.5000000  -0.5000000), wk =   0.0003750
        k(   67) = (   0.0500000   0.0500000   0.0500000), wk =   0.0010000
        k(   68) = (   0.0500000   0.0500000   0.1000000), wk =   0.0030000
        k(   69) = (   0.0500000   0.0500000   0.1500000), wk =   0.0030000
        k(   70) = (   0.0500000   0.0500000   0.2000000), wk =   0.0030000
        k(   71) = (   0.0500000   0.0500000   0.2500000), wk =   0.0030000
        k(   72) = (   0.0500000   0.0500000   0.3000000), wk =   0.0030000
        k(   73) = (   0.0500000   0.0500000   0.3500000), wk =   0.0030000
        k(   74) = (   0.0500000   0.0500000   0.4000000), wk =   0.0030000
        k(   75) = (   0.0500000   0.0500000   0.4500000), wk =   0.0030000
        k(   76) = (   0.0500000   0.0500000  -0.5000000), wk =   0.0015000
        k(   77) = (   0.0500000   0.1000000   0.1000000), wk =   0.0030000
        k(   78) = (   0.0500000   0.1000000   0.1500000), wk =   0.0060000
        k(   79) = (   0.0500000   0.1000000   0.2000000), wk =   0.0060000
        k(   80) = (   0.0500000   0.1000000   0.2500000), wk =   0.0060000
        k(   81) = (   0.0500000   0.1000000   0.3000000), wk =   0.0060000
        k(   82) = (   0.0500000   0.1000000   0.3500000), wk =   0.0060000
        k(   83) = (   0.0500000   0.1000000   0.4000000), wk =   0.0060000
        k(   84) = (   0.0500000   0.1000000   0.4500000), wk =   0.0060000
        k(   85) = (   0.0500000   0.1000000  -0.5000000), wk =   0.0030000
        k(   86) = (   0.0500000   0.1500000   0.1500000), wk =   0.0030000
        k(   87) = (   0.0500000   0.1500000   0.2000000), wk =   0.0060000
        k(   88) = (   0.0500000   0.1500000   0.2500000), wk =   0.0060000
        k(   89) = (   0.0500000   0.1500000   0.3000000), wk =   0.0060000
        k(   90) = (   0.0500000   0.1500000   0.3500000), wk =   0.0060000
        k(   91) = (   0.0500000   0.1500000   0.4000000), wk =   0.0060000
        k(   92) = (   0.0500000   0.1500000   0.4500000), wk =   0.0060000
        k(   93) = (   0.0500000   0.1500000  -0.5000000), wk =   0.0030000
        k(   94) = (   0.0500000   0.2000000   0.2000000), wk =   0.0030000
        k(   95) = (   0.0500000   0.2000000   0.2500000), wk =   0.0060000
        k(   96) = (   0.0500000   0.2000000   0.3000000), wk =   0.0060000
        k(   97) = (   0.0500000   0.2000000   0.3500000), wk =   0.0060000
        k(   98) = (   0.0500000   0.2000000   0.4000000), wk =   0.0060000
        k(   99) = (   0.0500000   0.2000000   0.4500000), wk =   0.0060000
        k(  100) = (   0.0500000   0.2000000  -0.5000000), wk =   0.0030000
        k(  101) = (   0.0500000   0.2500000   0.2500000), wk =   0.0030000
        k(  102) = (   0.0500000   0.2500000   0.3000000), wk =   0.0060000
        k(  103) = (   0.0500000   0.2500000   0.3500000), wk =   0.0060000
        k(  104) = (   0.0500000   0.2500000   0.4000000), wk =   0.0060000
        k(  105) = (   0.0500000   0.2500000   0.4500000), wk =   0.0060000
        k(  106) = (   0.0500000   0.2500000  -0.5000000), wk =   0.0030000
        k(  107) = (   0.0500000   0.3000000   0.3000000), wk =   0.0030000
        k(  108) = (   0.0500000   0.3000000   0.3500000), wk =   0.0060000
        k(  109) = (   0.0500000   0.3000000   0.4000000), wk =   0.0060000
        k(  110) = (   0.0500000   0.3000000   0.4500000), wk =   0.0060000
        k(  111) = (   0.0500000   0.3000000  -0.5000000), wk =   0.0030000
        k(  112) = (   0.0500000   0.3500000   0.3500000), wk =   0.0030000
        k(  113) = (   0.0500000   0.3500000   0.4000000), wk =   0.0060000
        k(  114) = (   0.0500000   0.3500000   0.4500000), wk =   0.0060000
        k(  115) = (   0.0500000   0.3500000  -0.5000000), wk =   0.0030000
        k(  116) = (   0.0500000   0.4000000   0.4000000), wk =   0.0030000
        k(  117) = (   0.0500000   0.4000000   0.4500000), wk =   0.0060000
        k(  118) = (   0.0500000   0.4000000  -0.5000000), wk =   0.0030000
        k(  119) = (   0.0500000   0.4500000   0.4500000), wk =   0.0030000
        k(  120) = (   0.0500000   0.4500000  -0.5000000), wk =   0.0030000
        k(  121) = (   0.0500000  -0.5000000  -0.5000000), wk =   0.0007500
        k(  122) = (   0.1000000   0.1000000   0.1000000), wk =   0.0010000
        k(  123) = (   0.1000000   0.1000000   0.1500000), wk =   0.0030000
        k(  124) = (   0.1000000   0.1000000   0.2000000), wk =   0.0030000
        k(  125) = (   0.1000000   0.1000000   0.2500000), wk =   0.0030000
        k(  126) = (   0.1000000   0.1000000   0.3000000), wk =   0.0030000
        k(  127) = (   0.1000000   0.1000000   0.3500000), wk =   0.0030000
        k(  128) = (   0.1000000   0.1000000   0.4000000), wk =   0.0030000
        k(  129) = (   0.1000000   0.1000000   0.4500000), wk =   0.0030000
        k(  130) = (   0.1000000   0.1000000  -0.5000000), wk =   0.0015000
        k(  131) = (   0.1000000   0.1500000   0.1500000), wk =   0.0030000
        k(  132) = (   0.1000000   0.1500000   0.2000000), wk =   0.0060000
        k(  133) = (   0.1000000   0.1500000   0.2500000), wk =   0.0060000
        k(  134) = (   0.1000000   0.1500000   0.3000000), wk =   0.0060000
        k(  135) = (   0.1000000   0.1500000   0.3500000), wk =   0.0060000
        k(  136) = (   0.1000000   0.1500000   0.4000000), wk =   0.0060000
        k(  137) = (   0.1000000   0.1500000   0.4500000), wk =   0.0060000
        k(  138) = (   0.1000000   0.1500000  -0.5000000), wk =   0.0030000
        k(  139) = (   0.1000000   0.2000000   0.2000000), wk =   0.0030000
        k(  140) = (   0.1000000   0.2000000   0.2500000), wk =   0.0060000
        k(  141) = (   0.1000000   0.2000000   0.3000000), wk =   0.0060000
        k(  142) = (   0.1000000   0.2000000   0.3500000), wk =   0.0060000
        k(  143) = (   0.1000000   0.2000000   0.4000000), wk =   0.0060000
        k(  144) = (   0.1000000   0.2000000   0.4500000), wk =   0.0060000
        k(  145) = (   0.1000000   0.2000000  -0.5000000), wk =   0.0030000
        k(  146) = (   0.1000000   0.2500000   0.2500000), wk =   0.0030000
        k(  147) = (   0.1000000   0.2500000   0.3000000), wk =   0.0060000
        k(  148) = (   0.1000000   0.2500000   0.3500000), wk =   0.0060000
        k(  149) = (   0.1000000   0.2500000   0.4000000), wk =   0.0060000
        k(  150) = (   0.1000000   0.2500000   0.4500000), wk =   0.0060000
        k(  151) = (   0.1000000   0.2500000  -0.5000000), wk =   0.0030000
        k(  152) = (   0.1000000   0.3000000   0.3000000), wk =   0.0030000
        k(  153) = (   0.1000000   0.3000000   0.3500000), wk =   0.0060000
        k(  154) = (   0.1000000   0.3000000   0.4000000), wk =   0.0060000
        k(  155) = (   0.1000000   0.3000000   0.4500000), wk =   0.0060000
        k(  156) = (   0.1000000   0.3000000  -0.5000000), wk =   0.0030000
        k(  157) = (   0.1000000   0.3500000   0.3500000), wk =   0.0030000
        k(  158) = (   0.1000000   0.3500000   0.4000000), wk =   0.0060000
        k(  159) = (   0.1000000   0.3500000   0.4500000), wk =   0.0060000
        k(  160) = (   0.1000000   0.3500000  -0.5000000), wk =   0.0030000
        k(  161) = (   0.1000000   0.4000000   0.4000000), wk =   0.0030000
        k(  162) = (   0.1000000   0.4000000   0.4500000), wk =   0.0060000
        k(  163) = (   0.1000000   0.4000000  -0.5000000), wk =   0.0030000
        k(  164) = (   0.1000000   0.4500000   0.4500000), wk =   0.0030000
        k(  165) = (   0.1000000   0.4500000  -0.5000000), wk =   0.0030000
        k(  166) = (   0.1000000  -0.5000000  -0.5000000), wk =   0.0007500
        k(  167) = (   0.1500000   0.1500000   0.1500000), wk =   0.0010000
        k(  168) = (   0.1500000   0.1500000   0.2000000), wk =   0.0030000
        k(  169) = (   0.1500000   0.1500000   0.2500000), wk =   0.0030000
        k(  170) = (   0.1500000   0.1500000   0.3000000), wk =   0.0030000
        k(  171) = (   0.1500000   0.1500000   0.3500000), wk =   0.0030000
        k(  172) = (   0.1500000   0.1500000   0.4000000), wk =   0.0030000
        k(  173) = (   0.1500000   0.1500000   0.4500000), wk =   0.0030000
        k(  174) = (   0.1500000   0.1500000  -0.5000000), wk =   0.0015000
        k(  175) = (   0.1500000   0.2000000   0.2000000), wk =   0.0030000
        k(  176) = (   0.1500000   0.2000000   0.2500000), wk =   0.0060000
        k(  177) = (   0.1500000   0.2000000   0.3000000), wk =   0.0060000
        k(  178) = (   0.1500000   0.2000000   0.3500000), wk =   0.0060000
        k(  179) = (   0.1500000   0.2000000   0.4000000), wk =   0.0060000
        k(  180) = (   0.1500000   0.2000000   0.4500000), wk =   0.0060000
        k(  181) = (   0.1500000   0.2000000  -0.5000000), wk =   0.0030000
        k(  182) = (   0.1500000   0.2500000   0.2500000), wk =   0.0030000
        k(  183) = (   0.1500000   0.2500000   0.3000000), wk =   0.0060000
        k(  184) = (   0.1500000   0.2500000   0.3500000), wk =   0.0060000
        k(  185) = (   0.1500000   0.2500000   0.4000000), wk =   0.0060000
        k(  186) = (   0.1500000   0.2500000   0.4500000), wk =   0.0060000
        k(  187) = (   0.1500000   0.2500000  -0.5000000), wk =   0.0030000
        k(  188) = (   0.1500000   0.3000000   0.3000000), wk =   0.0030000
        k(  189) = (   0.1500000   0.3000000   0.3500000), wk =   0.0060000
        k(  190) = (   0.1500000   0.3000000   0.4000000), wk =   0.0060000
        k(  191) = (   0.1500000   0.3000000   0.4500000), wk =   0.0060000
        k(  192) = (   0.1500000   0.3000000  -0.5000000), wk =   0.0030000
        k(  193) = (   0.1500000   0.3500000   0.3500000), wk =   0.0030000
        k(  194) = (   0.1500000   0.3500000   0.4000000), wk =   0.0060000
        k(  195) = (   0.1500000   0.3500000   0.4500000), wk =   0.0060000
        k(  196) = (   0.1500000   0.3500000  -0.5000000), wk =   0.0030000
        k(  197) = (   0.1500000   0.4000000   0.4000000), wk =   0.0030000
        k(  198) = (   0.1500000   0.4000000   0.4500000), wk =   0.0060000
        k(  199) = (   0.1500000   0.4000000  -0.5000000), wk =   0.0030000
        k(  200) = (   0.1500000   0.4500000   0.4500000), wk =   0.0030000
        k(  201) = (   0.1500000   0.4500000  -0.5000000), wk =   0.0030000
        k(  202) = (   0.1500000  -0.5000000  -0.5000000), wk =   0.0007500
        k(  203) = (   0.2000000   0.2000000   0.2000000), wk =   0.0010000
        k(  204) = (   0.2000000   0.2000000   0.2500000), wk =   0.0030000
        k(  205) = (   0.2000000   0.2000000   0.3000000), wk =   0.0030000
        k(  206) = (   0.2000000   0.2000000   0.3500000), wk =   0.0030000
        k(  207) = (   0.2000000   0.2000000   0.4000000), wk =   0.0030000
        k(  208) = (   0.2000000   0.2000000   0.4500000), wk =   0.0030000
        k(  209) = (   0.2000000   0.2000000  -0.5000000), wk =   0.0015000
        k(  210) = (   0.2000000   0.2500000   0.2500000), wk =   0.0030000
        k(  211) = (   0.2000000   0.2500000   0.3000000), wk =   0.0060000
        k(  212) = (   0.2000000   0.2500000   0.3500000), wk =   0.0060000
        k(  213) = (   0.2000000   0.2500000   0.4000000), wk =   0.0060000
        k(  214) = (   0.2000000   0.2500000   0.4500000), wk =   0.0060000
        k(  215) = (   0.2000000   0.2500000  -0.5000000), wk =   0.0030000
        k(  216) = (   0.2000000   0.3000000   0.3000000), wk =   0.0030000
        k(  217) = (   0.2000000   0.3000000   0.3500000), wk =   0.0060000
        k(  218) = (   0.2000000   0.3000000   0.4000000), wk =   0.0060000
        k(  219) = (   0.2000000   0.3000000   0.4500000), wk =   0.0060000
        k(  220) = (   0.2000000   0.3000000  -0.5000000), wk =   0.0030000
        k(  221) = (   0.2000000   0.3500000   0.3500000), wk =   0.0030000
        k(  222) = (   0.2000000   0.3500000   0.4000000), wk =   0.0060000
        k(  223) = (   0.2000000   0.3500000   0.4500000), wk =   0.0060000
        k(  224) = (   0.2000000   0.3500000  -0.5000000), wk =   0.0030000
        k(  225) = (   0.2000000   0.4000000   0.4000000), wk =   0.0030000
        k(  226) = (   0.2000000   0.4000000   0.4500000), wk =   0.0060000
        k(  227) = (   0.2000000   0.4000000  -0.5000000), wk =   0.0030000
        k(  228) = (   0.2000000   0.4500000   0.4500000), wk =   0.0030000
        k(  229) = (   0.2000000   0.4500000  -0.5000000), wk =   0.0030000
        k(  230) = (   0.2000000  -0.5000000  -0.5000000), wk =   0.0007500
        k(  231) = (   0.2500000   0.2500000   0.2500000), wk =   0.0010000
        k(  232) = (   0.2500000   0.2500000   0.3000000), wk =   0.0030000
        k(  233) = (   0.2500000   0.2500000   0.3500000), wk =   0.0030000
        k(  234) = (   0.2500000   0.2500000   0.4000000), wk =   0.0030000
        k(  235) = (   0.2500000   0.2500000   0.4500000), wk =   0.0030000
        k(  236) = (   0.2500000   0.2500000  -0.5000000), wk =   0.0015000
        k(  237) = (   0.2500000   0.3000000   0.3000000), wk =   0.0030000
        k(  238) = (   0.2500000   0.3000000   0.3500000), wk =   0.0060000
        k(  239) = (   0.2500000   0.3000000   0.4000000), wk =   0.0060000
        k(  240) = (   0.2500000   0.3000000   0.4500000), wk =   0.0060000
        k(  241) = (   0.2500000   0.3000000  -0.5000000), wk =   0.0030000
        k(  242) = (   0.2500000   0.3500000   0.3500000), wk =   0.0030000
        k(  243) = (   0.2500000   0.3500000   0.4000000), wk =   0.0060000
        k(  244) = (   0.2500000   0.3500000   0.4500000), wk =   0.0060000
        k(  245) = (   0.2500000   0.3500000  -0.5000000), wk =   0.0030000
        k(  246) = (   0.2500000   0.4000000   0.4000000), wk =   0.0030000
        k(  247) = (   0.2500000   0.4000000   0.4500000), wk =   0.0060000
        k(  248) = (   0.2500000   0.4000000  -0.5000000), wk =   0.0030000
        k(  249) = (   0.2500000   0.4500000   0.4500000), wk =   0.0030000
        k(  250) = (   0.2500000   0.4500000  -0.5000000), wk =   0.0030000
        k(  251) = (   0.2500000  -0.5000000  -0.5000000), wk =   0.0007500
        k(  252) = (   0.3000000   0.3000000   0.3000000), wk =   0.0010000
        k(  253) = (   0.3000000   0.3000000   0.3500000), wk =   0.0030000
        k(  254) = (   0.3000000   0.3000000   0.4000000), wk =   0.0030000
        k(  255) = (   0.3000000   0.3000000   0.4500000), wk =   0.0030000
        k(  256) = (   0.3000000   0.3000000  -0.5000000), wk =   0.0015000
        k(  257) = (   0.3000000   0.3500000   0.3500000), wk =   0.0030000
        k(  258) = (   0.3000000   0.3500000   0.4000000), wk =   0.0060000
        k(  259) = (   0.3000000   0.3500000   0.4500000), wk =   0.0060000
        k(  260) = (   0.3000000   0.3500000  -0.5000000), wk =   0.0030000
        k(  261) = (   0.3000000   0.4000000   0.4000000), wk =   0.0030000
        k(  262) = (   0.3000000   0.4000000   0.4500000), wk =   0.0060000
        k(  263) = (   0.3000000   0.4000000  -0.5000000), wk =   0.0030000
        k(  264) = (   0.3000000   0.4500000   0.4500000), wk =   0.0030000
        k(  265) = (   0.3000000   0.4500000  -0.5000000), wk =   0.0030000
        k(  266) = (   0.3000000  -0.5000000  -0.5000000), wk =   0.0007500
        k(  267) = (   0.3500000   0.3500000   0.3500000), wk =   0.0010000
        k(  268) = (   0.3500000   0.3500000   0.4000000), wk =   0.0030000
        k(  269) = (   0.3500000   0.3500000   0.4500000), wk =   0.0030000
        k(  270) = (   0.3500000   0.3500000  -0.5000000), wk =   0.0015000
        k(  271) = (   0.3500000   0.4000000   0.4000000), wk =   0.0030000
        k(  272) = (   0.3500000   0.4000000   0.4500000), wk =   0.0060000
        k(  273) = (   0.3500000   0.4000000  -0.5000000), wk =   0.0030000
        k(  274) = (   0.3500000   0.4500000   0.4500000), wk =   0.0030000
        k(  275) = (   0.3500000   0.4500000  -0.5000000), wk =   0.0030000
        k(  276) = (   0.3500000  -0.5000000  -0.5000000), wk =   0.0007500
        k(  277) = (   0.4000000   0.4000000   0.4000000), wk =   0.0010000
        k(  278) = (   0.4000000   0.4000000   0.4500000), wk =   0.0030000
        k(  279) = (   0.4000000   0.4000000  -0.5000000), wk =   0.0015000
        k(  280) = (   0.4000000   0.4500000   0.4500000), wk =   0.0030000
        k(  281) = (   0.4000000   0.4500000  -0.5000000), wk =   0.0030000
        k(  282) = (   0.4000000  -0.5000000  -0.5000000), wk =   0.0007500
        k(  283) = (   0.4500000   0.4500000   0.4500000), wk =   0.0010000
        k(  284) = (   0.4500000   0.4500000  -0.5000000), wk =   0.0015000
        k(  285) = (   0.4500000  -0.5000000  -0.5000000), wk =   0.0007500
        k(  286) = (  -0.5000000  -0.5000000  -0.5000000), wk =   0.0001250

     Dense  grid:    95433 G-vectors     FFT dimensions: (  60,  60,  60)

     Smooth grid:    18325 G-vectors     FFT dimensions: (  36,  36,  36)

     Dynamical RAM for                 wfc:       0.18 MB

     Dynamical RAM for     wfc (w. buffer):     100.37 MB

     Dynamical RAM for           str. fact:       0.36 MB

     Dynamical RAM for           local pot:       0.00 MB

     Dynamical RAM for          nlocal pot:       0.32 MB

     Dynamical RAM for                qrad:       2.64 MB

     Dynamical RAM for          rho,v,vnew:       4.66 MB

     Dynamical RAM for               rhoin:       1.55 MB

     Dynamical RAM for            rho*nmix:      11.65 MB

     Dynamical RAM for           G-vectors:       1.40 MB

     Dynamical RAM for          h,s,v(r/c):       0.07 MB

     Dynamical RAM for          <psi|beta>:       0.01 MB

     Dynamical RAM for                 psi:       0.35 MB

     Dynamical RAM for                hpsi:       0.35 MB

     Dynamical RAM for                spsi:       0.35 MB

     Dynamical RAM for      wfcinit/wfcrot:       0.36 MB

     Dynamical RAM for           addusdens:      68.80 MB

     Dynamical RAM for          addusforce:      69.55 MB

     Dynamical RAM for         addusstress:      73.72 MB

     Estimated static dynamical RAM per process >     114.50 MB

     Estimated max dynamical RAM per process >     199.86 MB

     Estimated total dynamical RAM >     799.46 MB
     Generating pointlists ...
     new r_m :   0.3572 (alat units)  1.9362 (a.u.) for type    1

     Initial potential from superposition of free atoms

     starting charge      31.9991, renormalised to      32.0000
     Starting wfcs are   20 randomized atomic wfcs
     Checking if some PAW data can be deallocated... 

     total cpu time spent up to now is     4140.2 secs

     per-process dynamical memory:   302.9 Mb

     Self-consistent Calculation

     iteration #  1     ecut=    90.00 Ry     beta= 0.20
     Davidson diagonalization with overlap

---- Real-time Memory Report at c_bands before calling an iterative solver
           356 MiB given to the printing process from OS
           295 MiB allocation reported by mallinfo(arena+hblkhd)
        194709 MiB available memory on the node where the printing process lives
------------------
     ethr =  1.00E-02,  avg # of iterations =  3.6

     total cpu time spent up to now is    19410.4 secs

     total energy              =    -658.21825641 Ry
     estimated scf accuracy    <       0.53926550 Ry

     total magnetization       =     6.42 Bohr mag/cell
     absolute magnetization    =     6.48 Bohr mag/cell

     iteration #  2     ecut=    90.00 Ry     beta= 0.20
     Davidson diagonalization with overlap

---- Real-time Memory Report at c_bands before calling an iterative solver
           424 MiB given to the printing process from OS
           304 MiB allocation reported by mallinfo(arena+hblkhd)
        116612 MiB available memory on the node where the printing process lives
------------------
     ethr =  1.69E-03,  avg # of iterations =  1.1

     negative rho (up, down):  0.000E+00 6.835E-04

     total cpu time spent up to now is    30523.0 secs

     total energy              =    -658.47274804 Ry
     estimated scf accuracy    <       0.36758058 Ry

     total magnetization       =     6.20 Bohr mag/cell
     absolute magnetization    =     6.31 Bohr mag/cell

     iteration #  3     ecut=    90.00 Ry     beta= 0.20
     Davidson diagonalization with overlap

---- Real-time Memory Report at c_bands before calling an iterative solver
           425 MiB given to the printing process from OS
           304 MiB allocation reported by mallinfo(arena+hblkhd)
        117376 MiB available memory on the node where the printing process lives
------------------
     ethr =  1.15E-03,  avg # of iterations =  1.6

     negative rho (up, down):  0.000E+00 8.322E-04

     total cpu time spent up to now is    42516.7 secs

     total energy              =    -658.55447624 Ry
     estimated scf accuracy    <       0.05031214 Ry

     total magnetization       =     5.10 Bohr mag/cell
     absolute magnetization    =     5.43 Bohr mag/cell

     iteration #  4     ecut=    90.00 Ry     beta= 0.20
     Davidson diagonalization with overlap

---- Real-time Memory Report at c_bands before calling an iterative solver
           432 MiB given to the printing process from OS
           305 MiB allocation reported by mallinfo(arena+hblkhd)
        117399 MiB available memory on the node where the printing process lives
------------------
     ethr =  1.57E-04,  avg # of iterations =  2.9

     negative rho (up, down):  0.000E+00 3.968E-04

     total cpu time spent up to now is    56840.4 secs

     total energy              =    -658.50039538 Ry
     estimated scf accuracy    <       0.13727520 Ry

     total magnetization       =     5.10 Bohr mag/cell
     absolute magnetization    =     5.40 Bohr mag/cell

     iteration #  5     ecut=    90.00 Ry     beta= 0.20
     Davidson diagonalization with overlap

---- Real-time Memory Report at c_bands before calling an iterative solver
           432 MiB given to the printing process from OS
           305 MiB allocation reported by mallinfo(arena+hblkhd)
        117183 MiB available memory on the node where the printing process lives
------------------
     ethr =  1.57E-04,  avg # of iterations =  3.5

     negative rho (up, down):  0.000E+00 3.852E-04

     total cpu time spent up to now is    74092.9 secs

     total energy              =    -658.53897996 Ry
     estimated scf accuracy    <       0.01832550 Ry

     total magnetization       =     4.64 Bohr mag/cell
     absolute magnetization    =     4.98 Bohr mag/cell

     iteration #  6     ecut=    90.00 Ry     beta= 0.20
     Davidson diagonalization with overlap

---- Real-time Memory Report at c_bands before calling an iterative solver
           432 MiB given to the printing process from OS
           305 MiB allocation reported by mallinfo(arena+hblkhd)
        116447 MiB available memory on the node where the printing process lives
------------------

     Maximum CPU time exceeded

     max_seconds     =   82800.00
     elapsed seconds =   82804.12
     Calculation stopped in k-point loop, point #   547
     Calculation stopped in scf loop at iteration #     5
     Message from routine punch:
     Nothing written, as per user request (disk_io='none')

     init_run     :   4134.10s CPU   4137.20s WALL (       1 calls)
     electrons    :  77636.24s CPU  78664.41s WALL (       1 calls)

     Called by init_run:
     wfcinit      :   4128.87s CPU   4131.72s WALL (       1 calls)
     wfcinit:atom :     19.19s CPU     21.10s WALL (     572 calls)
     wfcinit:wfcr :   4088.41s CPU   4089.47s WALL (     572 calls)
     potinit      :      3.37s CPU      3.40s WALL (       1 calls)
     hinit0       :      0.95s CPU      1.01s WALL (       1 calls)

     Called by electrons:
     c_bands      :  67988.33s CPU  68897.65s WALL (       6 calls)
     sum_band     :   9628.33s CPU   9746.57s WALL (       5 calls)
     v_of_rho     :      9.38s CPU      9.57s WALL (       6 calls)
     v_h          :      0.90s CPU      0.92s WALL (       6 calls)
     v_xc         :      8.48s CPU      8.65s WALL (       6 calls)
     newd         :      3.12s CPU      3.50s WALL (       6 calls)
     PAW_pot      :      6.11s CPU      6.29s WALL (       6 calls)
     mix_rho      :      2.42s CPU      2.46s WALL (       5 calls)

     Called by c_bands:
     init_us_2    :    235.53s CPU    237.63s WALL (    6839 calls)
     cegterg      :  67719.99s CPU  68622.65s WALL (    3407 calls)

     Called by sum_band:
     sum_band:wei :      0.11s CPU      0.11s WALL (       5 calls)
     sum_band:loo :   9624.99s CPU   9742.94s WALL (       5 calls)
     sum_band:buf :      0.18s CPU      0.19s WALL (    2860 calls)
     sum_band:ini :    101.82s CPU    102.72s WALL (    2860 calls)
     sum_band:cal :    156.18s CPU    161.30s WALL (    2860 calls)
     sum_band:bec :    207.34s CPU    209.07s WALL (    2860 calls)
     addusdens    :      1.17s CPU      1.46s WALL (       5 calls)
                                        0.00s GPU  (       5 calls)
     addusd:skk   :      0.00s CPU      0.00s WALL (       5 calls)
                                        0.00s GPU  (       5 calls)

     Called by *egterg:
     cdiaghg      :  19532.64s CPU  19565.75s WALL (   11228 calls)
     cegterg:over :    639.70s CPU    656.82s WALL (    7821 calls)
     cegterg:upda :    743.17s CPU    789.82s WALL (    7821 calls)
     cegterg:last :    415.03s CPU    512.90s WALL (    5691 calls)
     h_psi        :  48512.98s CPU  49160.31s WALL (   11800 calls)
     s_psi        :    440.03s CPU    474.56s WALL (   11800 calls)
     g_psi        :    320.99s CPU    323.37s WALL (    7821 calls)

     Called by h_psi:
     h_psi:calbec :    583.18s CPU    601.09s WALL (   11800 calls)
     vloc_psi     :  47050.59s CPU  47632.20s WALL (   11800 calls)
     add_vuspsi   :    391.14s CPU    433.17s WALL (   11800 calls)

     General routines
     calbec       :    739.28s CPU    762.31s WALL (   14660 calls)
     fft          :     12.45s CPU     12.69s WALL (     148 calls)
     ffts         :      2.02s CPU      2.02s WALL (      22 calls)
     fftw         :  32150.20s CPU  32644.08s WALL (  393456 calls)
     interpolate  :      2.12s CPU      2.11s WALL (      12 calls)

     Parallel routines

     PAW routines
     PAW_pot      :      6.11s CPU      6.29s WALL (       6 calls)
     PAW_symme    :      0.02s CPU      0.02s WALL (      11 calls)

     PWSCF        :  81772.43s CPU  82804.61s WALL


   This run was terminated on:  13: 6:25  14May2025            

=------------------------------------------------------------------------------=
   JOB DONE.
=------------------------------------------------------------------------------=
