
     Program PWSCF v.7.3.1 starts on 13May2025 at 14: 6:19 

     This program is part of the open-source Quantum ESPRESSO suite
     for quantum simulation of materials; please cite
         "P. Giannozzi et al., J. Phys.:Condens. Matter 21 395502 (2009);
         "P. Giannozzi et al., J. Phys.:Condens. Matter 29 465901 (2017);
         "P. Giannozzi et al., J. Chem. Phys. 152 154105 (2020);
          URL http://www.quantum-espresso.org", 
     in publications or presentations arising from this work. More details at
     http://www.quantum-espresso.org/quote

     Parallel version (MPI & OpenMP), running on      16 processor cores
     Number of MPI processes:                 4
     Threads/MPI process:                     4

     MPI processes distributed on     1 nodes
     463893 MiB available memory on the printing compute node when the environment starts

     Waiting for input...
     Reading input from standard input

     Current dimensions of program PWSCF are:
     Max number of different atomic species (ntypx) = 10
     Max number of k-points (npk) =  40000
     Max angular momentum in pseudopotentials (lmaxx) =  4
     file Fe.pbe-spn-kjpaw_psl.1.0.0.UPF: wavefunction(s)  3P 3D renormalized
     Found identity + ( -0.5000 -0.5000 -0.5000) symmetry
     This is a supercell, fractional translations are disabled
     Message from routine setup:
     using ibrav=0 with symmetry is DISCOURAGED, use correct ibrav instead

     R & G space division:  proc/nbgrp/npool/nimage =       4
     Subspace diagonalization in iterative solution of the eigenvalue problem:
     a serial algorithm will be used


     Parallelization info
     --------------------
     sticks:   dense  smooth     PW     G-vecs:    dense   smooth      PW
     Min         633     211     63                23857     4581     767
     Max         635     212     64                23859     4582     769
     Sum        2537     845    253                95433    18325    3071

     Using Slab Decomposition



     bravais-lattice index     =            0
     lattice parameter (alat)  =       5.4199  a.u.
     unit-cell volume          =     159.2133 (a.u.)^3
     number of atoms/cell      =            2
     number of atomic types    =            1
     number of electrons       =        32.00
     number of Kohn-Sham states=           20
     kinetic-energy cutoff     =      90.0000  Ry
     charge density cutoff     =    1080.0000  Ry
     scf convergence threshold =      1.0E-08
     mixing beta               =       0.2000
     number of iterations used =            8  plain     mixing
     Exchange-correlation= SLA  PW   PBX  PBC
                           (   1   4   3   4   0   0   0)

     celldm(1)=   5.419923  celldm(2)=   0.000000  celldm(3)=   0.000000
     celldm(4)=   0.000000  celldm(5)=   0.000000  celldm(6)=   0.000000

     crystal axes: (cart. coord. in units of alat)
               a(1) = (   1.000000   0.000000   0.000000 )  
               a(2) = (   0.000000   1.000000   0.000000 )  
               a(3) = (   0.000000   0.000000   1.000000 )  

     reciprocal axes: (cart. coord. in units 2 pi/alat)
               b(1) = (  1.000000  0.000000  0.000000 )  
               b(2) = (  0.000000  1.000000  0.000000 )  
               b(3) = (  0.000000  0.000000  1.000000 )  


     PseudoPot. # 1 for Fe read from file:
     ./pseudo/Fe.pbe-spn-kjpaw_psl.1.0.0.UPF
     MD5 check sum: fc81f059e5c5069939230b1155715ae8
     Pseudo is Projector augmented-wave + core cor, Zval = 16.0
     Generated using &quot;atomic&quot; code by A. Dal Corso  v.6.3
     Shape of augmentation charge: PSQ
     Using radial grid of 1191 points,  6 beta functions with: 
                l(1) =   0
                l(2) =   0
                l(3) =   1
                l(4) =   1
                l(5) =   2
                l(6) =   2
     Q(r) pseudized with 0 coefficients 


     atomic species   valence    mass     pseudopotential
     Fe               16.00    55.84500     Fe( 1.00)

     Starting magnetic structure 
     atomic species   magnetization
     Fe              0.400

     48 Sym. Ops., with inversion, found


                                    s                        frac. trans.

      isym =  1     identity                                     

 cryst.   s( 1) = (     1          0          0      )
                  (     0          1          0      )
                  (     0          0          1      )

 cart.    s( 1) = (  1.0000000  0.0000000  0.0000000 )
                  (  0.0000000  1.0000000  0.0000000 )
                  (  0.0000000  0.0000000  1.0000000 )


      isym =  2     180 deg rotation - cart. axis [0,0,1]        

 cryst.   s( 2) = (    -1          0          0      )
                  (     0         -1          0      )
                  (     0          0          1      )

 cart.    s( 2) = ( -1.0000000  0.0000000  0.0000000 )
                  (  0.0000000 -1.0000000  0.0000000 )
                  (  0.0000000  0.0000000  1.0000000 )


      isym =  3     180 deg rotation - cart. axis [0,1,0]        

 cryst.   s( 3) = (    -1          0          0      )
                  (     0          1          0      )
                  (     0          0         -1      )

 cart.    s( 3) = ( -1.0000000  0.0000000  0.0000000 )
                  (  0.0000000  1.0000000  0.0000000 )
                  (  0.0000000  0.0000000 -1.0000000 )


      isym =  4     180 deg rotation - cart. axis [1,0,0]        

 cryst.   s( 4) = (     1          0          0      )
                  (     0         -1          0      )
                  (     0          0         -1      )

 cart.    s( 4) = (  1.0000000  0.0000000  0.0000000 )
                  (  0.0000000 -1.0000000  0.0000000 )
                  (  0.0000000  0.0000000 -1.0000000 )


      isym =  5     180 deg rotation - cart. axis [1,1,0]        

 cryst.   s( 5) = (     0          1          0      )
                  (     1          0          0      )
                  (     0          0         -1      )

 cart.    s( 5) = (  0.0000000  1.0000000  0.0000000 )
                  (  1.0000000  0.0000000  0.0000000 )
                  (  0.0000000  0.0000000 -1.0000000 )


      isym =  6     180 deg rotation - cart. axis [1,-1,0]       

 cryst.   s( 6) = (     0         -1          0      )
                  (    -1          0          0      )
                  (     0          0         -1      )

 cart.    s( 6) = (  0.0000000 -1.0000000  0.0000000 )
                  ( -1.0000000  0.0000000  0.0000000 )
                  (  0.0000000  0.0000000 -1.0000000 )


      isym =  7      90 deg rotation - cart. axis [0,0,-1]       

 cryst.   s( 7) = (     0         -1          0      )
                  (     1          0          0      )
                  (     0          0          1      )

 cart.    s( 7) = (  0.0000000  1.0000000  0.0000000 )
                  ( -1.0000000  0.0000000  0.0000000 )
                  (  0.0000000  0.0000000  1.0000000 )


      isym =  8      90 deg rotation - cart. axis [0,0,1]        

 cryst.   s( 8) = (     0          1          0      )
                  (    -1          0          0      )
                  (     0          0          1      )

 cart.    s( 8) = (  0.0000000 -1.0000000  0.0000000 )
                  (  1.0000000  0.0000000  0.0000000 )
                  (  0.0000000  0.0000000  1.0000000 )


      isym =  9     180 deg rotation - cart. axis [1,0,1]        

 cryst.   s( 9) = (     0          0          1      )
                  (     0         -1          0      )
                  (     1          0          0      )

 cart.    s( 9) = (  0.0000000  0.0000000  1.0000000 )
                  (  0.0000000 -1.0000000  0.0000000 )
                  (  1.0000000  0.0000000  0.0000000 )


      isym = 10     180 deg rotation - cart. axis [-1,0,1]       

 cryst.   s(10) = (     0          0         -1      )
                  (     0         -1          0      )
                  (    -1          0          0      )

 cart.    s(10) = (  0.0000000  0.0000000 -1.0000000 )
                  (  0.0000000 -1.0000000  0.0000000 )
                  ( -1.0000000  0.0000000  0.0000000 )


      isym = 11      90 deg rotation - cart. axis [0,1,0]        

 cryst.   s(11) = (     0          0         -1      )
                  (     0          1          0      )
                  (     1          0          0      )

 cart.    s(11) = (  0.0000000  0.0000000  1.0000000 )
                  (  0.0000000  1.0000000  0.0000000 )
                  ( -1.0000000  0.0000000  0.0000000 )


      isym = 12      90 deg rotation - cart. axis [0,-1,0]       

 cryst.   s(12) = (     0          0          1      )
                  (     0          1          0      )
                  (    -1          0          0      )

 cart.    s(12) = (  0.0000000  0.0000000 -1.0000000 )
                  (  0.0000000  1.0000000  0.0000000 )
                  (  1.0000000  0.0000000  0.0000000 )


      isym = 13     180 deg rotation - cart. axis [0,1,1]        

 cryst.   s(13) = (    -1          0          0      )
                  (     0          0          1      )
                  (     0          1          0      )

 cart.    s(13) = ( -1.0000000  0.0000000  0.0000000 )
                  (  0.0000000  0.0000000  1.0000000 )
                  (  0.0000000  1.0000000  0.0000000 )


      isym = 14     180 deg rotation - cart. axis [0,1,-1]       

 cryst.   s(14) = (    -1          0          0      )
                  (     0          0         -1      )
                  (     0         -1          0      )

 cart.    s(14) = ( -1.0000000  0.0000000  0.0000000 )
                  (  0.0000000  0.0000000 -1.0000000 )
                  (  0.0000000 -1.0000000  0.0000000 )


      isym = 15      90 deg rotation - cart. axis [-1,0,0]       

 cryst.   s(15) = (     1          0          0      )
                  (     0          0         -1      )
                  (     0          1          0      )

 cart.    s(15) = (  1.0000000  0.0000000  0.0000000 )
                  (  0.0000000  0.0000000  1.0000000 )
                  (  0.0000000 -1.0000000  0.0000000 )


      isym = 16      90 deg rotation - cart. axis [1,0,0]        

 cryst.   s(16) = (     1          0          0      )
                  (     0          0          1      )
                  (     0         -1          0      )

 cart.    s(16) = (  1.0000000  0.0000000  0.0000000 )
                  (  0.0000000  0.0000000 -1.0000000 )
                  (  0.0000000  1.0000000  0.0000000 )


      isym = 17     120 deg rotation - cart. axis [-1,-1,-1]     

 cryst.   s(17) = (     0          0          1      )
                  (     1          0          0      )
                  (     0          1          0      )

 cart.    s(17) = (  0.0000000  1.0000000  0.0000000 )
                  (  0.0000000  0.0000000  1.0000000 )
                  (  1.0000000  0.0000000  0.0000000 )


      isym = 18     120 deg rotation - cart. axis [-1,1,1]       

 cryst.   s(18) = (     0          0         -1      )
                  (    -1          0          0      )
                  (     0          1          0      )

 cart.    s(18) = (  0.0000000 -1.0000000  0.0000000 )
                  (  0.0000000  0.0000000  1.0000000 )
                  ( -1.0000000  0.0000000  0.0000000 )


      isym = 19     120 deg rotation - cart. axis [1,1,-1]       

 cryst.   s(19) = (     0          0         -1      )
                  (     1          0          0      )
                  (     0         -1          0      )

 cart.    s(19) = (  0.0000000  1.0000000  0.0000000 )
                  (  0.0000000  0.0000000 -1.0000000 )
                  ( -1.0000000  0.0000000  0.0000000 )


      isym = 20     120 deg rotation - cart. axis [1,-1,1]       

 cryst.   s(20) = (     0          0          1      )
                  (    -1          0          0      )
                  (     0         -1          0      )

 cart.    s(20) = (  0.0000000 -1.0000000  0.0000000 )
                  (  0.0000000  0.0000000 -1.0000000 )
                  (  1.0000000  0.0000000  0.0000000 )


      isym = 21     120 deg rotation - cart. axis [1,1,1]        

 cryst.   s(21) = (     0          1          0      )
                  (     0          0          1      )
                  (     1          0          0      )

 cart.    s(21) = (  0.0000000  0.0000000  1.0000000 )
                  (  1.0000000  0.0000000  0.0000000 )
                  (  0.0000000  1.0000000  0.0000000 )


      isym = 22     120 deg rotation - cart. axis [-1,1,-1]      

 cryst.   s(22) = (     0         -1          0      )
                  (     0          0         -1      )
                  (     1          0          0      )

 cart.    s(22) = (  0.0000000  0.0000000  1.0000000 )
                  ( -1.0000000  0.0000000  0.0000000 )
                  (  0.0000000 -1.0000000  0.0000000 )


      isym = 23     120 deg rotation - cart. axis [1,-1,-1]      

 cryst.   s(23) = (     0         -1          0      )
                  (     0          0          1      )
                  (    -1          0          0      )

 cart.    s(23) = (  0.0000000  0.0000000 -1.0000000 )
                  ( -1.0000000  0.0000000  0.0000000 )
                  (  0.0000000  1.0000000  0.0000000 )


      isym = 24     120 deg rotation - cart. axis [-1,-1,1]      

 cryst.   s(24) = (     0          1          0      )
                  (     0          0         -1      )
                  (    -1          0          0      )

 cart.    s(24) = (  0.0000000  0.0000000 -1.0000000 )
                  (  1.0000000  0.0000000  0.0000000 )
                  (  0.0000000 -1.0000000  0.0000000 )


      isym = 25     inversion                                    

 cryst.   s(25) = (    -1          0          0      )
                  (     0         -1          0      )
                  (     0          0         -1      )

 cart.    s(25) = ( -1.0000000  0.0000000  0.0000000 )
                  (  0.0000000 -1.0000000  0.0000000 )
                  (  0.0000000  0.0000000 -1.0000000 )


      isym = 26     inv. 180 deg rotation - cart. axis [0,0,1]   

 cryst.   s(26) = (     1          0          0      )
                  (     0          1          0      )
                  (     0          0         -1      )

 cart.    s(26) = (  1.0000000  0.0000000  0.0000000 )
                  (  0.0000000  1.0000000  0.0000000 )
                  (  0.0000000  0.0000000 -1.0000000 )


      isym = 27     inv. 180 deg rotation - cart. axis [0,1,0]   

 cryst.   s(27) = (     1          0          0      )
                  (     0         -1          0      )
                  (     0          0          1      )

 cart.    s(27) = (  1.0000000  0.0000000  0.0000000 )
                  (  0.0000000 -1.0000000  0.0000000 )
                  (  0.0000000  0.0000000  1.0000000 )


      isym = 28     inv. 180 deg rotation - cart. axis [1,0,0]   

 cryst.   s(28) = (    -1          0          0      )
                  (     0          1          0      )
                  (     0          0          1      )

 cart.    s(28) = ( -1.0000000  0.0000000  0.0000000 )
                  (  0.0000000  1.0000000  0.0000000 )
                  (  0.0000000  0.0000000  1.0000000 )


      isym = 29     inv. 180 deg rotation - cart. axis [1,1,0]   

 cryst.   s(29) = (     0         -1          0      )
                  (    -1          0          0      )
                  (     0          0          1      )

 cart.    s(29) = (  0.0000000 -1.0000000  0.0000000 )
                  ( -1.0000000  0.0000000  0.0000000 )
                  (  0.0000000  0.0000000  1.0000000 )


      isym = 30     inv. 180 deg rotation - cart. axis [1,-1,0]  

 cryst.   s(30) = (     0          1          0      )
                  (     1          0          0      )
                  (     0          0          1      )

 cart.    s(30) = (  0.0000000  1.0000000  0.0000000 )
                  (  1.0000000  0.0000000  0.0000000 )
                  (  0.0000000  0.0000000  1.0000000 )


      isym = 31     inv.  90 deg rotation - cart. axis [0,0,-1]  

 cryst.   s(31) = (     0          1          0      )
                  (    -1          0          0      )
                  (     0          0         -1      )

 cart.    s(31) = (  0.0000000 -1.0000000  0.0000000 )
                  (  1.0000000  0.0000000  0.0000000 )
                  (  0.0000000  0.0000000 -1.0000000 )


      isym = 32     inv.  90 deg rotation - cart. axis [0,0,1]   

 cryst.   s(32) = (     0         -1          0      )
                  (     1          0          0      )
                  (     0          0         -1      )

 cart.    s(32) = (  0.0000000  1.0000000  0.0000000 )
                  ( -1.0000000  0.0000000  0.0000000 )
                  (  0.0000000  0.0000000 -1.0000000 )


      isym = 33     inv. 180 deg rotation - cart. axis [1,0,1]   

 cryst.   s(33) = (     0          0         -1      )
                  (     0          1          0      )
                  (    -1          0          0      )

 cart.    s(33) = (  0.0000000  0.0000000 -1.0000000 )
                  (  0.0000000  1.0000000  0.0000000 )
                  ( -1.0000000  0.0000000  0.0000000 )


      isym = 34     inv. 180 deg rotation - cart. axis [-1,0,1]  

 cryst.   s(34) = (     0          0          1      )
                  (     0          1          0      )
                  (     1          0          0      )

 cart.    s(34) = (  0.0000000  0.0000000  1.0000000 )
                  (  0.0000000  1.0000000  0.0000000 )
                  (  1.0000000  0.0000000  0.0000000 )


      isym = 35     inv.  90 deg rotation - cart. axis [0,1,0]   

 cryst.   s(35) = (     0          0          1      )
                  (     0         -1          0      )
                  (    -1          0          0      )

 cart.    s(35) = (  0.0000000  0.0000000 -1.0000000 )
                  (  0.0000000 -1.0000000  0.0000000 )
                  (  1.0000000  0.0000000  0.0000000 )


      isym = 36     inv.  90 deg rotation - cart. axis [0,-1,0]  

 cryst.   s(36) = (     0          0         -1      )
                  (     0         -1          0      )
                  (     1          0          0      )

 cart.    s(36) = (  0.0000000  0.0000000  1.0000000 )
                  (  0.0000000 -1.0000000  0.0000000 )
                  ( -1.0000000  0.0000000  0.0000000 )


      isym = 37     inv. 180 deg rotation - cart. axis [0,1,1]   

 cryst.   s(37) = (     1          0          0      )
                  (     0          0         -1      )
                  (     0         -1          0      )

 cart.    s(37) = (  1.0000000  0.0000000  0.0000000 )
                  (  0.0000000  0.0000000 -1.0000000 )
                  (  0.0000000 -1.0000000  0.0000000 )


      isym = 38     inv. 180 deg rotation - cart. axis [0,1,-1]  

 cryst.   s(38) = (     1          0          0      )
                  (     0          0          1      )
                  (     0          1          0      )

 cart.    s(38) = (  1.0000000  0.0000000  0.0000000 )
                  (  0.0000000  0.0000000  1.0000000 )
                  (  0.0000000  1.0000000  0.0000000 )


      isym = 39     inv.  90 deg rotation - cart. axis [-1,0,0]  

 cryst.   s(39) = (    -1          0          0      )
                  (     0          0          1      )
                  (     0         -1          0      )

 cart.    s(39) = ( -1.0000000  0.0000000  0.0000000 )
                  (  0.0000000  0.0000000 -1.0000000 )
                  (  0.0000000  1.0000000  0.0000000 )


      isym = 40     inv.  90 deg rotation - cart. axis [1,0,0]   

 cryst.   s(40) = (    -1          0          0      )
                  (     0          0         -1      )
                  (     0          1          0      )

 cart.    s(40) = ( -1.0000000  0.0000000  0.0000000 )
                  (  0.0000000  0.0000000  1.0000000 )
                  (  0.0000000 -1.0000000  0.0000000 )


      isym = 41     inv. 120 deg rotation - cart. axis [-1,-1,-1]

 cryst.   s(41) = (     0          0         -1      )
                  (    -1          0          0      )
                  (     0         -1          0      )

 cart.    s(41) = (  0.0000000 -1.0000000  0.0000000 )
                  (  0.0000000  0.0000000 -1.0000000 )
                  ( -1.0000000  0.0000000  0.0000000 )


      isym = 42     inv. 120 deg rotation - cart. axis [-1,1,1]  

 cryst.   s(42) = (     0          0          1      )
                  (     1          0          0      )
                  (     0         -1          0      )

 cart.    s(42) = (  0.0000000  1.0000000  0.0000000 )
                  (  0.0000000  0.0000000 -1.0000000 )
                  (  1.0000000  0.0000000  0.0000000 )


      isym = 43     inv. 120 deg rotation - cart. axis [1,1,-1]  

 cryst.   s(43) = (     0          0          1      )
                  (    -1          0          0      )
                  (     0          1          0      )

 cart.    s(43) = (  0.0000000 -1.0000000  0.0000000 )
                  (  0.0000000  0.0000000  1.0000000 )
                  (  1.0000000  0.0000000  0.0000000 )


      isym = 44     inv. 120 deg rotation - cart. axis [1,-1,1]  

 cryst.   s(44) = (     0          0         -1      )
                  (     1          0          0      )
                  (     0          1          0      )

 cart.    s(44) = (  0.0000000  1.0000000  0.0000000 )
                  (  0.0000000  0.0000000  1.0000000 )
                  ( -1.0000000  0.0000000  0.0000000 )


      isym = 45     inv. 120 deg rotation - cart. axis [1,1,1]   

 cryst.   s(45) = (     0         -1          0      )
                  (     0          0         -1      )
                  (    -1          0          0      )

 cart.    s(45) = (  0.0000000  0.0000000 -1.0000000 )
                  ( -1.0000000  0.0000000  0.0000000 )
                  (  0.0000000 -1.0000000  0.0000000 )


      isym = 46     inv. 120 deg rotation - cart. axis [-1,1,-1] 

 cryst.   s(46) = (     0          1          0      )
                  (     0          0          1      )
                  (    -1          0          0      )

 cart.    s(46) = (  0.0000000  0.0000000 -1.0000000 )
                  (  1.0000000  0.0000000  0.0000000 )
                  (  0.0000000  1.0000000  0.0000000 )


      isym = 47     inv. 120 deg rotation - cart. axis [1,-1,-1] 

 cryst.   s(47) = (     0          1          0      )
                  (     0          0         -1      )
                  (     1          0          0      )

 cart.    s(47) = (  0.0000000  0.0000000  1.0000000 )
                  (  1.0000000  0.0000000  0.0000000 )
                  (  0.0000000 -1.0000000  0.0000000 )


      isym = 48     inv. 120 deg rotation - cart. axis [-1,-1,1] 

 cryst.   s(48) = (     0         -1          0      )
                  (     0          0          1      )
                  (     1          0          0      )

 cart.    s(48) = (  0.0000000  0.0000000  1.0000000 )
                  ( -1.0000000  0.0000000  0.0000000 )
                  (  0.0000000  1.0000000  0.0000000 )


   Cartesian axes

     site n.     atom                  positions (alat units)
         1        Fe     tau(   1) = (   0.0000000   0.0000000   0.0000000  )
         2        Fe     tau(   2) = (   0.5000000   0.5000000   0.5000000  )

   Crystallographic axes

     site n.     atom                  positions (cryst. coord.)
         1        Fe     tau(   1) = (  0.0000000  0.0000000  0.0000000  )
         2        Fe     tau(   2) = (  0.5000000  0.5000000  0.5000000  )

     number of k points=   165  Marzari-Vanderbilt smearing, width (Ry)=  0.0100
                       cart. coord. in units 2pi/alat
        k(    1) = (   0.0000000   0.0000000   0.0000000), wk =   0.0002441
        k(    2) = (   0.0000000   0.0000000   0.0625000), wk =   0.0014648
        k(    3) = (   0.0000000   0.0000000   0.1250000), wk =   0.0014648
        k(    4) = (   0.0000000   0.0000000   0.1875000), wk =   0.0014648
        k(    5) = (   0.0000000   0.0000000   0.2500000), wk =   0.0014648
        k(    6) = (   0.0000000   0.0000000   0.3125000), wk =   0.0014648
        k(    7) = (   0.0000000   0.0000000   0.3750000), wk =   0.0014648
        k(    8) = (   0.0000000   0.0000000   0.4375000), wk =   0.0014648
        k(    9) = (   0.0000000   0.0000000  -0.5000000), wk =   0.0007324
        k(   10) = (   0.0000000   0.0625000   0.0625000), wk =   0.0029297
        k(   11) = (   0.0000000   0.0625000   0.1250000), wk =   0.0058594
        k(   12) = (   0.0000000   0.0625000   0.1875000), wk =   0.0058594
        k(   13) = (   0.0000000   0.0625000   0.2500000), wk =   0.0058594
        k(   14) = (   0.0000000   0.0625000   0.3125000), wk =   0.0058594
        k(   15) = (   0.0000000   0.0625000   0.3750000), wk =   0.0058594
        k(   16) = (   0.0000000   0.0625000   0.4375000), wk =   0.0058594
        k(   17) = (   0.0000000   0.0625000  -0.5000000), wk =   0.0029297
        k(   18) = (   0.0000000   0.1250000   0.1250000), wk =   0.0029297
        k(   19) = (   0.0000000   0.1250000   0.1875000), wk =   0.0058594
        k(   20) = (   0.0000000   0.1250000   0.2500000), wk =   0.0058594
        k(   21) = (   0.0000000   0.1250000   0.3125000), wk =   0.0058594
        k(   22) = (   0.0000000   0.1250000   0.3750000), wk =   0.0058594
        k(   23) = (   0.0000000   0.1250000   0.4375000), wk =   0.0058594
        k(   24) = (   0.0000000   0.1250000  -0.5000000), wk =   0.0029297
        k(   25) = (   0.0000000   0.1875000   0.1875000), wk =   0.0029297
        k(   26) = (   0.0000000   0.1875000   0.2500000), wk =   0.0058594
        k(   27) = (   0.0000000   0.1875000   0.3125000), wk =   0.0058594
        k(   28) = (   0.0000000   0.1875000   0.3750000), wk =   0.0058594
        k(   29) = (   0.0000000   0.1875000   0.4375000), wk =   0.0058594
        k(   30) = (   0.0000000   0.1875000  -0.5000000), wk =   0.0029297
        k(   31) = (   0.0000000   0.2500000   0.2500000), wk =   0.0029297
        k(   32) = (   0.0000000   0.2500000   0.3125000), wk =   0.0058594
        k(   33) = (   0.0000000   0.2500000   0.3750000), wk =   0.0058594
        k(   34) = (   0.0000000   0.2500000   0.4375000), wk =   0.0058594
        k(   35) = (   0.0000000   0.2500000  -0.5000000), wk =   0.0029297
        k(   36) = (   0.0000000   0.3125000   0.3125000), wk =   0.0029297
        k(   37) = (   0.0000000   0.3125000   0.3750000), wk =   0.0058594
        k(   38) = (   0.0000000   0.3125000   0.4375000), wk =   0.0058594
        k(   39) = (   0.0000000   0.3125000  -0.5000000), wk =   0.0029297
        k(   40) = (   0.0000000   0.3750000   0.3750000), wk =   0.0029297
        k(   41) = (   0.0000000   0.3750000   0.4375000), wk =   0.0058594
        k(   42) = (   0.0000000   0.3750000  -0.5000000), wk =   0.0029297
        k(   43) = (   0.0000000   0.4375000   0.4375000), wk =   0.0029297
        k(   44) = (   0.0000000   0.4375000  -0.5000000), wk =   0.0029297
        k(   45) = (   0.0000000  -0.5000000  -0.5000000), wk =   0.0007324
        k(   46) = (   0.0625000   0.0625000   0.0625000), wk =   0.0019531
        k(   47) = (   0.0625000   0.0625000   0.1250000), wk =   0.0058594
        k(   48) = (   0.0625000   0.0625000   0.1875000), wk =   0.0058594
        k(   49) = (   0.0625000   0.0625000   0.2500000), wk =   0.0058594
        k(   50) = (   0.0625000   0.0625000   0.3125000), wk =   0.0058594
        k(   51) = (   0.0625000   0.0625000   0.3750000), wk =   0.0058594
        k(   52) = (   0.0625000   0.0625000   0.4375000), wk =   0.0058594
        k(   53) = (   0.0625000   0.0625000  -0.5000000), wk =   0.0029297
        k(   54) = (   0.0625000   0.1250000   0.1250000), wk =   0.0058594
        k(   55) = (   0.0625000   0.1250000   0.1875000), wk =   0.0117188
        k(   56) = (   0.0625000   0.1250000   0.2500000), wk =   0.0117188
        k(   57) = (   0.0625000   0.1250000   0.3125000), wk =   0.0117188
        k(   58) = (   0.0625000   0.1250000   0.3750000), wk =   0.0117188
        k(   59) = (   0.0625000   0.1250000   0.4375000), wk =   0.0117188
        k(   60) = (   0.0625000   0.1250000  -0.5000000), wk =   0.0058594
        k(   61) = (   0.0625000   0.1875000   0.1875000), wk =   0.0058594
        k(   62) = (   0.0625000   0.1875000   0.2500000), wk =   0.0117188
        k(   63) = (   0.0625000   0.1875000   0.3125000), wk =   0.0117188
        k(   64) = (   0.0625000   0.1875000   0.3750000), wk =   0.0117188
        k(   65) = (   0.0625000   0.1875000   0.4375000), wk =   0.0117188
        k(   66) = (   0.0625000   0.1875000  -0.5000000), wk =   0.0058594
        k(   67) = (   0.0625000   0.2500000   0.2500000), wk =   0.0058594
        k(   68) = (   0.0625000   0.2500000   0.3125000), wk =   0.0117188
        k(   69) = (   0.0625000   0.2500000   0.3750000), wk =   0.0117188
        k(   70) = (   0.0625000   0.2500000   0.4375000), wk =   0.0117188
        k(   71) = (   0.0625000   0.2500000  -0.5000000), wk =   0.0058594
        k(   72) = (   0.0625000   0.3125000   0.3125000), wk =   0.0058594
        k(   73) = (   0.0625000   0.3125000   0.3750000), wk =   0.0117188
        k(   74) = (   0.0625000   0.3125000   0.4375000), wk =   0.0117188
        k(   75) = (   0.0625000   0.3125000  -0.5000000), wk =   0.0058594
        k(   76) = (   0.0625000   0.3750000   0.3750000), wk =   0.0058594
        k(   77) = (   0.0625000   0.3750000   0.4375000), wk =   0.0117188
        k(   78) = (   0.0625000   0.3750000  -0.5000000), wk =   0.0058594
        k(   79) = (   0.0625000   0.4375000   0.4375000), wk =   0.0058594
        k(   80) = (   0.0625000   0.4375000  -0.5000000), wk =   0.0058594
        k(   81) = (   0.0625000  -0.5000000  -0.5000000), wk =   0.0014648
        k(   82) = (   0.1250000   0.1250000   0.1250000), wk =   0.0019531
        k(   83) = (   0.1250000   0.1250000   0.1875000), wk =   0.0058594
        k(   84) = (   0.1250000   0.1250000   0.2500000), wk =   0.0058594
        k(   85) = (   0.1250000   0.1250000   0.3125000), wk =   0.0058594
        k(   86) = (   0.1250000   0.1250000   0.3750000), wk =   0.0058594
        k(   87) = (   0.1250000   0.1250000   0.4375000), wk =   0.0058594
        k(   88) = (   0.1250000   0.1250000  -0.5000000), wk =   0.0029297
        k(   89) = (   0.1250000   0.1875000   0.1875000), wk =   0.0058594
        k(   90) = (   0.1250000   0.1875000   0.2500000), wk =   0.0117188
        k(   91) = (   0.1250000   0.1875000   0.3125000), wk =   0.0117188
        k(   92) = (   0.1250000   0.1875000   0.3750000), wk =   0.0117188
        k(   93) = (   0.1250000   0.1875000   0.4375000), wk =   0.0117188
        k(   94) = (   0.1250000   0.1875000  -0.5000000), wk =   0.0058594
        k(   95) = (   0.1250000   0.2500000   0.2500000), wk =   0.0058594
        k(   96) = (   0.1250000   0.2500000   0.3125000), wk =   0.0117188
        k(   97) = (   0.1250000   0.2500000   0.3750000), wk =   0.0117188
        k(   98) = (   0.1250000   0.2500000   0.4375000), wk =   0.0117188
        k(   99) = (   0.1250000   0.2500000  -0.5000000), wk =   0.0058594
        k(  100) = (   0.1250000   0.3125000   0.3125000), wk =   0.0058594
        k(  101) = (   0.1250000   0.3125000   0.3750000), wk =   0.0117188
        k(  102) = (   0.1250000   0.3125000   0.4375000), wk =   0.0117188
        k(  103) = (   0.1250000   0.3125000  -0.5000000), wk =   0.0058594
        k(  104) = (   0.1250000   0.3750000   0.3750000), wk =   0.0058594
        k(  105) = (   0.1250000   0.3750000   0.4375000), wk =   0.0117188
        k(  106) = (   0.1250000   0.3750000  -0.5000000), wk =   0.0058594
        k(  107) = (   0.1250000   0.4375000   0.4375000), wk =   0.0058594
        k(  108) = (   0.1250000   0.4375000  -0.5000000), wk =   0.0058594
        k(  109) = (   0.1250000  -0.5000000  -0.5000000), wk =   0.0014648
        k(  110) = (   0.1875000   0.1875000   0.1875000), wk =   0.0019531
        k(  111) = (   0.1875000   0.1875000   0.2500000), wk =   0.0058594
        k(  112) = (   0.1875000   0.1875000   0.3125000), wk =   0.0058594
        k(  113) = (   0.1875000   0.1875000   0.3750000), wk =   0.0058594
        k(  114) = (   0.1875000   0.1875000   0.4375000), wk =   0.0058594
        k(  115) = (   0.1875000   0.1875000  -0.5000000), wk =   0.0029297
        k(  116) = (   0.1875000   0.2500000   0.2500000), wk =   0.0058594
        k(  117) = (   0.1875000   0.2500000   0.3125000), wk =   0.0117188
        k(  118) = (   0.1875000   0.2500000   0.3750000), wk =   0.0117188
        k(  119) = (   0.1875000   0.2500000   0.4375000), wk =   0.0117188
        k(  120) = (   0.1875000   0.2500000  -0.5000000), wk =   0.0058594
        k(  121) = (   0.1875000   0.3125000   0.3125000), wk =   0.0058594
        k(  122) = (   0.1875000   0.3125000   0.3750000), wk =   0.0117188
        k(  123) = (   0.1875000   0.3125000   0.4375000), wk =   0.0117188
        k(  124) = (   0.1875000   0.3125000  -0.5000000), wk =   0.0058594
        k(  125) = (   0.1875000   0.3750000   0.3750000), wk =   0.0058594
        k(  126) = (   0.1875000   0.3750000   0.4375000), wk =   0.0117188
        k(  127) = (   0.1875000   0.3750000  -0.5000000), wk =   0.0058594
        k(  128) = (   0.1875000   0.4375000   0.4375000), wk =   0.0058594
        k(  129) = (   0.1875000   0.4375000  -0.5000000), wk =   0.0058594
        k(  130) = (   0.1875000  -0.5000000  -0.5000000), wk =   0.0014648
        k(  131) = (   0.2500000   0.2500000   0.2500000), wk =   0.0019531
        k(  132) = (   0.2500000   0.2500000   0.3125000), wk =   0.0058594
        k(  133) = (   0.2500000   0.2500000   0.3750000), wk =   0.0058594
        k(  134) = (   0.2500000   0.2500000   0.4375000), wk =   0.0058594
        k(  135) = (   0.2500000   0.2500000  -0.5000000), wk =   0.0029297
        k(  136) = (   0.2500000   0.3125000   0.3125000), wk =   0.0058594
        k(  137) = (   0.2500000   0.3125000   0.3750000), wk =   0.0117188
        k(  138) = (   0.2500000   0.3125000   0.4375000), wk =   0.0117188
        k(  139) = (   0.2500000   0.3125000  -0.5000000), wk =   0.0058594
        k(  140) = (   0.2500000   0.3750000   0.3750000), wk =   0.0058594
        k(  141) = (   0.2500000   0.3750000   0.4375000), wk =   0.0117188
        k(  142) = (   0.2500000   0.3750000  -0.5000000), wk =   0.0058594
        k(  143) = (   0.2500000   0.4375000   0.4375000), wk =   0.0058594
        k(  144) = (   0.2500000   0.4375000  -0.5000000), wk =   0.0058594
        k(  145) = (   0.2500000  -0.5000000  -0.5000000), wk =   0.0014648
        k(  146) = (   0.3125000   0.3125000   0.3125000), wk =   0.0019531
        k(  147) = (   0.3125000   0.3125000   0.3750000), wk =   0.0058594
        k(  148) = (   0.3125000   0.3125000   0.4375000), wk =   0.0058594
        k(  149) = (   0.3125000   0.3125000  -0.5000000), wk =   0.0029297
        k(  150) = (   0.3125000   0.3750000   0.3750000), wk =   0.0058594
        k(  151) = (   0.3125000   0.3750000   0.4375000), wk =   0.0117188
        k(  152) = (   0.3125000   0.3750000  -0.5000000), wk =   0.0058594
        k(  153) = (   0.3125000   0.4375000   0.4375000), wk =   0.0058594
        k(  154) = (   0.3125000   0.4375000  -0.5000000), wk =   0.0058594
        k(  155) = (   0.3125000  -0.5000000  -0.5000000), wk =   0.0014648
        k(  156) = (   0.3750000   0.3750000   0.3750000), wk =   0.0019531
        k(  157) = (   0.3750000   0.3750000   0.4375000), wk =   0.0058594
        k(  158) = (   0.3750000   0.3750000  -0.5000000), wk =   0.0029297
        k(  159) = (   0.3750000   0.4375000   0.4375000), wk =   0.0058594
        k(  160) = (   0.3750000   0.4375000  -0.5000000), wk =   0.0058594
        k(  161) = (   0.3750000  -0.5000000  -0.5000000), wk =   0.0014648
        k(  162) = (   0.4375000   0.4375000   0.4375000), wk =   0.0019531
        k(  163) = (   0.4375000   0.4375000  -0.5000000), wk =   0.0029297
        k(  164) = (   0.4375000  -0.5000000  -0.5000000), wk =   0.0014648
        k(  165) = (  -0.5000000  -0.5000000  -0.5000000), wk =   0.0002441

                       cryst. coord.
        k(    1) = (   0.0000000   0.0000000   0.0000000), wk =   0.0002441
        k(    2) = (   0.0000000   0.0000000   0.0625000), wk =   0.0014648
        k(    3) = (   0.0000000   0.0000000   0.1250000), wk =   0.0014648
        k(    4) = (   0.0000000   0.0000000   0.1875000), wk =   0.0014648
        k(    5) = (   0.0000000   0.0000000   0.2500000), wk =   0.0014648
        k(    6) = (   0.0000000   0.0000000   0.3125000), wk =   0.0014648
        k(    7) = (   0.0000000   0.0000000   0.3750000), wk =   0.0014648
        k(    8) = (   0.0000000   0.0000000   0.4375000), wk =   0.0014648
        k(    9) = (   0.0000000   0.0000000  -0.5000000), wk =   0.0007324
        k(   10) = (   0.0000000   0.0625000   0.0625000), wk =   0.0029297
        k(   11) = (   0.0000000   0.0625000   0.1250000), wk =   0.0058594
        k(   12) = (   0.0000000   0.0625000   0.1875000), wk =   0.0058594
        k(   13) = (   0.0000000   0.0625000   0.2500000), wk =   0.0058594
        k(   14) = (   0.0000000   0.0625000   0.3125000), wk =   0.0058594
        k(   15) = (   0.0000000   0.0625000   0.3750000), wk =   0.0058594
        k(   16) = (   0.0000000   0.0625000   0.4375000), wk =   0.0058594
        k(   17) = (   0.0000000   0.0625000  -0.5000000), wk =   0.0029297
        k(   18) = (   0.0000000   0.1250000   0.1250000), wk =   0.0029297
        k(   19) = (   0.0000000   0.1250000   0.1875000), wk =   0.0058594
        k(   20) = (   0.0000000   0.1250000   0.2500000), wk =   0.0058594
        k(   21) = (   0.0000000   0.1250000   0.3125000), wk =   0.0058594
        k(   22) = (   0.0000000   0.1250000   0.3750000), wk =   0.0058594
        k(   23) = (   0.0000000   0.1250000   0.4375000), wk =   0.0058594
        k(   24) = (   0.0000000   0.1250000  -0.5000000), wk =   0.0029297
        k(   25) = (   0.0000000   0.1875000   0.1875000), wk =   0.0029297
        k(   26) = (   0.0000000   0.1875000   0.2500000), wk =   0.0058594
        k(   27) = (   0.0000000   0.1875000   0.3125000), wk =   0.0058594
        k(   28) = (   0.0000000   0.1875000   0.3750000), wk =   0.0058594
        k(   29) = (   0.0000000   0.1875000   0.4375000), wk =   0.0058594
        k(   30) = (   0.0000000   0.1875000  -0.5000000), wk =   0.0029297
        k(   31) = (   0.0000000   0.2500000   0.2500000), wk =   0.0029297
        k(   32) = (   0.0000000   0.2500000   0.3125000), wk =   0.0058594
        k(   33) = (   0.0000000   0.2500000   0.3750000), wk =   0.0058594
        k(   34) = (   0.0000000   0.2500000   0.4375000), wk =   0.0058594
        k(   35) = (   0.0000000   0.2500000  -0.5000000), wk =   0.0029297
        k(   36) = (   0.0000000   0.3125000   0.3125000), wk =   0.0029297
        k(   37) = (   0.0000000   0.3125000   0.3750000), wk =   0.0058594
        k(   38) = (   0.0000000   0.3125000   0.4375000), wk =   0.0058594
        k(   39) = (   0.0000000   0.3125000  -0.5000000), wk =   0.0029297
        k(   40) = (   0.0000000   0.3750000   0.3750000), wk =   0.0029297
        k(   41) = (   0.0000000   0.3750000   0.4375000), wk =   0.0058594
        k(   42) = (   0.0000000   0.3750000  -0.5000000), wk =   0.0029297
        k(   43) = (   0.0000000   0.4375000   0.4375000), wk =   0.0029297
        k(   44) = (   0.0000000   0.4375000  -0.5000000), wk =   0.0029297
        k(   45) = (   0.0000000  -0.5000000  -0.5000000), wk =   0.0007324
        k(   46) = (   0.0625000   0.0625000   0.0625000), wk =   0.0019531
        k(   47) = (   0.0625000   0.0625000   0.1250000), wk =   0.0058594
        k(   48) = (   0.0625000   0.0625000   0.1875000), wk =   0.0058594
        k(   49) = (   0.0625000   0.0625000   0.2500000), wk =   0.0058594
        k(   50) = (   0.0625000   0.0625000   0.3125000), wk =   0.0058594
        k(   51) = (   0.0625000   0.0625000   0.3750000), wk =   0.0058594
        k(   52) = (   0.0625000   0.0625000   0.4375000), wk =   0.0058594
        k(   53) = (   0.0625000   0.0625000  -0.5000000), wk =   0.0029297
        k(   54) = (   0.0625000   0.1250000   0.1250000), wk =   0.0058594
        k(   55) = (   0.0625000   0.1250000   0.1875000), wk =   0.0117188
        k(   56) = (   0.0625000   0.1250000   0.2500000), wk =   0.0117188
        k(   57) = (   0.0625000   0.1250000   0.3125000), wk =   0.0117188
        k(   58) = (   0.0625000   0.1250000   0.3750000), wk =   0.0117188
        k(   59) = (   0.0625000   0.1250000   0.4375000), wk =   0.0117188
        k(   60) = (   0.0625000   0.1250000  -0.5000000), wk =   0.0058594
        k(   61) = (   0.0625000   0.1875000   0.1875000), wk =   0.0058594
        k(   62) = (   0.0625000   0.1875000   0.2500000), wk =   0.0117188
        k(   63) = (   0.0625000   0.1875000   0.3125000), wk =   0.0117188
        k(   64) = (   0.0625000   0.1875000   0.3750000), wk =   0.0117188
        k(   65) = (   0.0625000   0.1875000   0.4375000), wk =   0.0117188
        k(   66) = (   0.0625000   0.1875000  -0.5000000), wk =   0.0058594
        k(   67) = (   0.0625000   0.2500000   0.2500000), wk =   0.0058594
        k(   68) = (   0.0625000   0.2500000   0.3125000), wk =   0.0117188
        k(   69) = (   0.0625000   0.2500000   0.3750000), wk =   0.0117188
        k(   70) = (   0.0625000   0.2500000   0.4375000), wk =   0.0117188
        k(   71) = (   0.0625000   0.2500000  -0.5000000), wk =   0.0058594
        k(   72) = (   0.0625000   0.3125000   0.3125000), wk =   0.0058594
        k(   73) = (   0.0625000   0.3125000   0.3750000), wk =   0.0117188
        k(   74) = (   0.0625000   0.3125000   0.4375000), wk =   0.0117188
        k(   75) = (   0.0625000   0.3125000  -0.5000000), wk =   0.0058594
        k(   76) = (   0.0625000   0.3750000   0.3750000), wk =   0.0058594
        k(   77) = (   0.0625000   0.3750000   0.4375000), wk =   0.0117188
        k(   78) = (   0.0625000   0.3750000  -0.5000000), wk =   0.0058594
        k(   79) = (   0.0625000   0.4375000   0.4375000), wk =   0.0058594
        k(   80) = (   0.0625000   0.4375000  -0.5000000), wk =   0.0058594
        k(   81) = (   0.0625000  -0.5000000  -0.5000000), wk =   0.0014648
        k(   82) = (   0.1250000   0.1250000   0.1250000), wk =   0.0019531
        k(   83) = (   0.1250000   0.1250000   0.1875000), wk =   0.0058594
        k(   84) = (   0.1250000   0.1250000   0.2500000), wk =   0.0058594
        k(   85) = (   0.1250000   0.1250000   0.3125000), wk =   0.0058594
        k(   86) = (   0.1250000   0.1250000   0.3750000), wk =   0.0058594
        k(   87) = (   0.1250000   0.1250000   0.4375000), wk =   0.0058594
        k(   88) = (   0.1250000   0.1250000  -0.5000000), wk =   0.0029297
        k(   89) = (   0.1250000   0.1875000   0.1875000), wk =   0.0058594
        k(   90) = (   0.1250000   0.1875000   0.2500000), wk =   0.0117188
        k(   91) = (   0.1250000   0.1875000   0.3125000), wk =   0.0117188
        k(   92) = (   0.1250000   0.1875000   0.3750000), wk =   0.0117188
        k(   93) = (   0.1250000   0.1875000   0.4375000), wk =   0.0117188
        k(   94) = (   0.1250000   0.1875000  -0.5000000), wk =   0.0058594
        k(   95) = (   0.1250000   0.2500000   0.2500000), wk =   0.0058594
        k(   96) = (   0.1250000   0.2500000   0.3125000), wk =   0.0117188
        k(   97) = (   0.1250000   0.2500000   0.3750000), wk =   0.0117188
        k(   98) = (   0.1250000   0.2500000   0.4375000), wk =   0.0117188
        k(   99) = (   0.1250000   0.2500000  -0.5000000), wk =   0.0058594
        k(  100) = (   0.1250000   0.3125000   0.3125000), wk =   0.0058594
        k(  101) = (   0.1250000   0.3125000   0.3750000), wk =   0.0117188
        k(  102) = (   0.1250000   0.3125000   0.4375000), wk =   0.0117188
        k(  103) = (   0.1250000   0.3125000  -0.5000000), wk =   0.0058594
        k(  104) = (   0.1250000   0.3750000   0.3750000), wk =   0.0058594
        k(  105) = (   0.1250000   0.3750000   0.4375000), wk =   0.0117188
        k(  106) = (   0.1250000   0.3750000  -0.5000000), wk =   0.0058594
        k(  107) = (   0.1250000   0.4375000   0.4375000), wk =   0.0058594
        k(  108) = (   0.1250000   0.4375000  -0.5000000), wk =   0.0058594
        k(  109) = (   0.1250000  -0.5000000  -0.5000000), wk =   0.0014648
        k(  110) = (   0.1875000   0.1875000   0.1875000), wk =   0.0019531
        k(  111) = (   0.1875000   0.1875000   0.2500000), wk =   0.0058594
        k(  112) = (   0.1875000   0.1875000   0.3125000), wk =   0.0058594
        k(  113) = (   0.1875000   0.1875000   0.3750000), wk =   0.0058594
        k(  114) = (   0.1875000   0.1875000   0.4375000), wk =   0.0058594
        k(  115) = (   0.1875000   0.1875000  -0.5000000), wk =   0.0029297
        k(  116) = (   0.1875000   0.2500000   0.2500000), wk =   0.0058594
        k(  117) = (   0.1875000   0.2500000   0.3125000), wk =   0.0117188
        k(  118) = (   0.1875000   0.2500000   0.3750000), wk =   0.0117188
        k(  119) = (   0.1875000   0.2500000   0.4375000), wk =   0.0117188
        k(  120) = (   0.1875000   0.2500000  -0.5000000), wk =   0.0058594
        k(  121) = (   0.1875000   0.3125000   0.3125000), wk =   0.0058594
        k(  122) = (   0.1875000   0.3125000   0.3750000), wk =   0.0117188
        k(  123) = (   0.1875000   0.3125000   0.4375000), wk =   0.0117188
        k(  124) = (   0.1875000   0.3125000  -0.5000000), wk =   0.0058594
        k(  125) = (   0.1875000   0.3750000   0.3750000), wk =   0.0058594
        k(  126) = (   0.1875000   0.3750000   0.4375000), wk =   0.0117188
        k(  127) = (   0.1875000   0.3750000  -0.5000000), wk =   0.0058594
        k(  128) = (   0.1875000   0.4375000   0.4375000), wk =   0.0058594
        k(  129) = (   0.1875000   0.4375000  -0.5000000), wk =   0.0058594
        k(  130) = (   0.1875000  -0.5000000  -0.5000000), wk =   0.0014648
        k(  131) = (   0.2500000   0.2500000   0.2500000), wk =   0.0019531
        k(  132) = (   0.2500000   0.2500000   0.3125000), wk =   0.0058594
        k(  133) = (   0.2500000   0.2500000   0.3750000), wk =   0.0058594
        k(  134) = (   0.2500000   0.2500000   0.4375000), wk =   0.0058594
        k(  135) = (   0.2500000   0.2500000  -0.5000000), wk =   0.0029297
        k(  136) = (   0.2500000   0.3125000   0.3125000), wk =   0.0058594
        k(  137) = (   0.2500000   0.3125000   0.3750000), wk =   0.0117188
        k(  138) = (   0.2500000   0.3125000   0.4375000), wk =   0.0117188
        k(  139) = (   0.2500000   0.3125000  -0.5000000), wk =   0.0058594
        k(  140) = (   0.2500000   0.3750000   0.3750000), wk =   0.0058594
        k(  141) = (   0.2500000   0.3750000   0.4375000), wk =   0.0117188
        k(  142) = (   0.2500000   0.3750000  -0.5000000), wk =   0.0058594
        k(  143) = (   0.2500000   0.4375000   0.4375000), wk =   0.0058594
        k(  144) = (   0.2500000   0.4375000  -0.5000000), wk =   0.0058594
        k(  145) = (   0.2500000  -0.5000000  -0.5000000), wk =   0.0014648
        k(  146) = (   0.3125000   0.3125000   0.3125000), wk =   0.0019531
        k(  147) = (   0.3125000   0.3125000   0.3750000), wk =   0.0058594
        k(  148) = (   0.3125000   0.3125000   0.4375000), wk =   0.0058594
        k(  149) = (   0.3125000   0.3125000  -0.5000000), wk =   0.0029297
        k(  150) = (   0.3125000   0.3750000   0.3750000), wk =   0.0058594
        k(  151) = (   0.3125000   0.3750000   0.4375000), wk =   0.0117188
        k(  152) = (   0.3125000   0.3750000  -0.5000000), wk =   0.0058594
        k(  153) = (   0.3125000   0.4375000   0.4375000), wk =   0.0058594
        k(  154) = (   0.3125000   0.4375000  -0.5000000), wk =   0.0058594
        k(  155) = (   0.3125000  -0.5000000  -0.5000000), wk =   0.0014648
        k(  156) = (   0.3750000   0.3750000   0.3750000), wk =   0.0019531
        k(  157) = (   0.3750000   0.3750000   0.4375000), wk =   0.0058594
        k(  158) = (   0.3750000   0.3750000  -0.5000000), wk =   0.0029297
        k(  159) = (   0.3750000   0.4375000   0.4375000), wk =   0.0058594
        k(  160) = (   0.3750000   0.4375000  -0.5000000), wk =   0.0058594
        k(  161) = (   0.3750000  -0.5000000  -0.5000000), wk =   0.0014648
        k(  162) = (   0.4375000   0.4375000   0.4375000), wk =   0.0019531
        k(  163) = (   0.4375000   0.4375000  -0.5000000), wk =   0.0029297
        k(  164) = (   0.4375000  -0.5000000  -0.5000000), wk =   0.0014648
        k(  165) = (  -0.5000000  -0.5000000  -0.5000000), wk =   0.0002441

     Dense  grid:    95433 G-vectors     FFT dimensions: (  60,  60,  60)

     Smooth grid:    18325 G-vectors     FFT dimensions: (  36,  36,  36)

     Dynamical RAM for                 wfc:       0.18 MB

     Dynamical RAM for     wfc (w. buffer):      57.98 MB

     Dynamical RAM for           str. fact:       0.36 MB

     Dynamical RAM for           local pot:       0.00 MB

     Dynamical RAM for          nlocal pot:       0.32 MB

     Dynamical RAM for                qrad:       2.64 MB

     Dynamical RAM for          rho,v,vnew:       4.66 MB

     Dynamical RAM for               rhoin:       1.55 MB

     Dynamical RAM for            rho*nmix:      11.65 MB

     Dynamical RAM for           G-vectors:       1.40 MB

     Dynamical RAM for          h,s,v(r/c):       0.07 MB

     Dynamical RAM for          <psi|beta>:       0.01 MB

     Dynamical RAM for                 psi:       0.35 MB

     Dynamical RAM for                hpsi:       0.35 MB

     Dynamical RAM for                spsi:       0.35 MB

     Dynamical RAM for      wfcinit/wfcrot:       0.36 MB

     Dynamical RAM for           addusdens:      68.80 MB

     Dynamical RAM for          addusforce:      69.55 MB

     Dynamical RAM for         addusstress:      73.72 MB

     Estimated static dynamical RAM per process >      72.10 MB

     Estimated max dynamical RAM per process >     157.47 MB

     Estimated total dynamical RAM >     629.89 MB
     Generating pointlists ...
     new r_m :   0.3572 (alat units)  1.9362 (a.u.) for type    1

     Initial potential from superposition of free atoms

     starting charge      31.9991, renormalised to      32.0000
     Starting wfcs are   20 randomized atomic wfcs
     Checking if some PAW data can be deallocated... 

     total cpu time spent up to now is     2428.1 secs

     per-process dynamical memory:   257.4 Mb

     Self-consistent Calculation

     iteration #  1     ecut=    90.00 Ry     beta= 0.20
     Davidson diagonalization with overlap

---- Real-time Memory Report at c_bands before calling an iterative solver
           320 MiB given to the printing process from OS
           251 MiB allocation reported by mallinfo(arena+hblkhd)
        463229 MiB available memory on the node where the printing process lives
------------------
     ethr =  1.00E-02,  avg # of iterations =  3.5

     total cpu time spent up to now is    10818.3 secs

     total energy              =    -658.21897155 Ry
     estimated scf accuracy    <       0.54247999 Ry

     total magnetization       =     6.38 Bohr mag/cell
     absolute magnetization    =     6.46 Bohr mag/cell

     iteration #  2     ecut=    90.00 Ry     beta= 0.20
     Davidson diagonalization with overlap

---- Real-time Memory Report at c_bands before calling an iterative solver
           390 MiB given to the printing process from OS
           260 MiB allocation reported by mallinfo(arena+hblkhd)
        463737 MiB available memory on the node where the printing process lives
------------------
     ethr =  1.70E-03,  avg # of iterations =  1.1

     negative rho (up, down):  0.000E+00 6.601E-04

     total cpu time spent up to now is    16961.0 secs

     total energy              =    -658.47254455 Ry
     estimated scf accuracy    <       0.36610662 Ry

     total magnetization       =     6.21 Bohr mag/cell
     absolute magnetization    =     6.32 Bohr mag/cell

     iteration #  3     ecut=    90.00 Ry     beta= 0.20
     Davidson diagonalization with overlap

---- Real-time Memory Report at c_bands before calling an iterative solver
           391 MiB given to the printing process from OS
           260 MiB allocation reported by mallinfo(arena+hblkhd)
        463351 MiB available memory on the node where the printing process lives
------------------
     ethr =  1.14E-03,  avg # of iterations =  1.6

     negative rho (up, down):  0.000E+00 7.340E-04

     total cpu time spent up to now is    23534.3 secs

     total energy              =    -658.54856463 Ry
     estimated scf accuracy    <       0.05146272 Ry

     total magnetization       =     5.10 Bohr mag/cell
     absolute magnetization    =     5.43 Bohr mag/cell

     iteration #  4     ecut=    90.00 Ry     beta= 0.20
     Davidson diagonalization with overlap

---- Real-time Memory Report at c_bands before calling an iterative solver
           391 MiB given to the printing process from OS
           260 MiB allocation reported by mallinfo(arena+hblkhd)
        462996 MiB available memory on the node where the printing process lives
------------------
     ethr =  1.61E-04,  avg # of iterations =  2.6

     negative rho (up, down):  0.000E+00 6.240E-04

     total cpu time spent up to now is    31007.0 secs

     total energy              =    -658.53440093 Ry
     estimated scf accuracy    <       0.10751650 Ry

     total magnetization       =     5.12 Bohr mag/cell
     absolute magnetization    =     5.42 Bohr mag/cell

     iteration #  5     ecut=    90.00 Ry     beta= 0.20
     Davidson diagonalization with overlap

---- Real-time Memory Report at c_bands before calling an iterative solver
           392 MiB given to the printing process from OS
           261 MiB allocation reported by mallinfo(arena+hblkhd)
        461817 MiB available memory on the node where the printing process lives
------------------
     ethr =  1.61E-04,  avg # of iterations =  1.5

     negative rho (up, down):  0.000E+00 5.631E-04

     total cpu time spent up to now is    37556.9 secs

     total energy              =    -658.53756987 Ry
     estimated scf accuracy    <       0.03530705 Ry

     total magnetization       =     5.05 Bohr mag/cell
     absolute magnetization    =     5.35 Bohr mag/cell

     iteration #  6     ecut=    90.00 Ry     beta= 0.20
     Davidson diagonalization with overlap

---- Real-time Memory Report at c_bands before calling an iterative solver
           392 MiB given to the printing process from OS
           261 MiB allocation reported by mallinfo(arena+hblkhd)
        461633 MiB available memory on the node where the printing process lives
------------------
     ethr =  1.10E-04,  avg # of iterations =  1.0

     negative rho (up, down):  0.000E+00 4.009E-04

     total cpu time spent up to now is    43554.2 secs

     total energy              =    -658.53721907 Ry
     estimated scf accuracy    <       0.03085388 Ry

     total magnetization       =     5.05 Bohr mag/cell
     absolute magnetization    =     5.35 Bohr mag/cell

     iteration #  7     ecut=    90.00 Ry     beta= 0.20
     Davidson diagonalization with overlap

---- Real-time Memory Report at c_bands before calling an iterative solver
           392 MiB given to the printing process from OS
           261 MiB allocation reported by mallinfo(arena+hblkhd)
        462550 MiB available memory on the node where the printing process lives
------------------
     ethr =  9.64E-05,  avg # of iterations =  1.0

     negative rho (up, down):  0.000E+00 1.420E-04

     total cpu time spent up to now is    49567.2 secs

     total energy              =    -658.52810941 Ry
     estimated scf accuracy    <       0.02527865 Ry

     total magnetization       =     5.05 Bohr mag/cell
     absolute magnetization    =     5.33 Bohr mag/cell

     iteration #  8     ecut=    90.00 Ry     beta= 0.20
     Davidson diagonalization with overlap

---- Real-time Memory Report at c_bands before calling an iterative solver
           397 MiB given to the printing process from OS
           261 MiB allocation reported by mallinfo(arena+hblkhd)
        461988 MiB available memory on the node where the printing process lives
------------------
     ethr =  7.90E-05,  avg # of iterations =  2.5

     negative rho (up, down):  0.000E+00 1.461E-04

     total cpu time spent up to now is    57373.7 secs

     total energy              =    -658.53746429 Ry
     estimated scf accuracy    <       0.00546554 Ry

     total magnetization       =     4.59 Bohr mag/cell
     absolute magnetization    =     4.88 Bohr mag/cell

     iteration #  9     ecut=    90.00 Ry     beta= 0.20
     Davidson diagonalization with overlap

---- Real-time Memory Report at c_bands before calling an iterative solver
           397 MiB given to the printing process from OS
           262 MiB allocation reported by mallinfo(arena+hblkhd)
        461589 MiB available memory on the node where the printing process lives
------------------
     ethr =  1.71E-05,  avg # of iterations =  1.3

     negative rho (up, down):  0.000E+00 1.395E-04

     total cpu time spent up to now is    63595.8 secs

     total energy              =    -658.53930735 Ry
     estimated scf accuracy    <       0.00691194 Ry

     total magnetization       =     4.65 Bohr mag/cell
     absolute magnetization    =     4.94 Bohr mag/cell

     iteration # 10     ecut=    90.00 Ry     beta= 0.20
     Davidson diagonalization with overlap

---- Real-time Memory Report at c_bands before calling an iterative solver
           397 MiB given to the printing process from OS
           262 MiB allocation reported by mallinfo(arena+hblkhd)
        461022 MiB available memory on the node where the printing process lives
------------------
     ethr =  1.71E-05,  avg # of iterations =  1.8

     negative rho (up, down):  0.000E+00 1.348E-04

     total cpu time spent up to now is    70252.5 secs

     total energy              =    -658.53888427 Ry
     estimated scf accuracy    <       0.01491309 Ry

     total magnetization       =     4.58 Bohr mag/cell
     absolute magnetization    =     4.88 Bohr mag/cell

     iteration # 11     ecut=    90.00 Ry     beta= 0.20
     Davidson diagonalization with overlap

---- Real-time Memory Report at c_bands before calling an iterative solver
           397 MiB given to the printing process from OS
           262 MiB allocation reported by mallinfo(arena+hblkhd)
        460561 MiB available memory on the node where the printing process lives
------------------
     ethr =  1.71E-05,  avg # of iterations =  1.0

     negative rho (up, down):  0.000E+00 1.087E-04

     total cpu time spent up to now is    76245.0 secs

     total energy              =    -658.53815591 Ry
     estimated scf accuracy    <       0.01034950 Ry

     total magnetization       =     4.57 Bohr mag/cell
     absolute magnetization    =     4.87 Bohr mag/cell

     iteration # 12     ecut=    90.00 Ry     beta= 0.20
     Davidson diagonalization with overlap

---- Real-time Memory Report at c_bands before calling an iterative solver
           397 MiB given to the printing process from OS
           262 MiB allocation reported by mallinfo(arena+hblkhd)
        459971 MiB available memory on the node where the printing process lives
------------------
     ethr =  1.71E-05,  avg # of iterations =  1.6

     negative rho (up, down):  0.000E+00 1.307E-04

     total cpu time spent up to now is    82998.0 secs

     total energy              =    -658.53746665 Ry
     estimated scf accuracy    <       0.00275232 Ry

     total magnetization       =     4.47 Bohr mag/cell
     absolute magnetization    =     4.74 Bohr mag/cell

     Maximum CPU time exceeded

     max_seconds     =   82800.00
     elapsed seconds =   82997.87
     Calculation stopped in scf loop at iteration #    12
     Message from routine punch:
     Nothing written, as per user request (disk_io='none')

     init_run     :   2404.98s CPU   2425.96s WALL (       1 calls)
     electrons    :  80740.97s CPU  80569.95s WALL (       1 calls)

     Called by init_run:
     wfcinit      :   2399.95s CPU   2420.70s WALL (       1 calls)
     wfcinit:atom :     10.97s CPU     11.17s WALL (     330 calls)
     wfcinit:wfcr :   2376.96s CPU   2397.67s WALL (     330 calls)
     potinit      :      3.27s CPU      3.44s WALL (       1 calls)
     hinit0       :      0.92s CPU      0.95s WALL (       1 calls)

     Called by electrons:
     c_bands      :  67822.78s CPU  67496.48s WALL (      12 calls)
     sum_band     :  12872.90s CPU  13026.77s WALL (      12 calls)
     v_of_rho     :     19.82s CPU     20.23s WALL (      13 calls)
     v_h          :      1.93s CPU      1.96s WALL (      13 calls)
     v_xc         :     17.89s CPU     18.27s WALL (      13 calls)
     newd         :      6.27s CPU      6.83s WALL (      13 calls)
     PAW_pot      :     12.74s CPU     13.14s WALL (      13 calls)
     mix_rho      :      5.56s CPU      5.64s WALL (      12 calls)

     Called by c_bands:
     init_us_2    :    276.48s CPU    279.64s WALL (    8250 calls)
     cegterg      :  67467.61s CPU  67133.78s WALL (    3960 calls)

     Called by sum_band:
     sum_band:wei :      0.10s CPU      0.09s WALL (      12 calls)
     sum_band:loo :  12865.35s CPU  13018.50s WALL (      12 calls)
     sum_band:buf :      0.23s CPU      0.25s WALL (    3960 calls)
     sum_band:ini :    136.98s CPU    138.18s WALL (    3960 calls)
     sum_band:cal :    209.34s CPU    216.06s WALL (    3960 calls)
     sum_band:bec :    280.39s CPU    282.46s WALL (    3960 calls)
     addusdens    :      2.60s CPU      3.23s WALL (      12 calls)
                                        0.00s GPU  (      12 calls)
     addusd:skk   :      0.00s CPU      0.00s WALL (      12 calls)
                                        0.00s GPU  (      12 calls)

     Called by *egterg:
     cdiaghg      :  17611.18s CPU  16498.34s WALL (   10763 calls)
     cegterg:over :    557.38s CPU    573.53s WALL (    6803 calls)
     cegterg:upda :    639.00s CPU    679.25s WALL (    6803 calls)
     cegterg:last :    350.69s CPU    396.93s WALL (    5776 calls)
     h_psi        :  48834.59s CPU  49471.73s WALL (   11093 calls)
     s_psi        :    404.34s CPU    436.86s WALL (   11093 calls)
     g_psi        :    260.13s CPU    253.29s WALL (    6803 calls)

     Called by h_psi:
     h_psi:calbec :    546.35s CPU    563.85s WALL (   11093 calls)
     vloc_psi     :  47495.77s CPU  48071.22s WALL (   11093 calls)
     add_vuspsi   :    369.75s CPU    415.18s WALL (   11093 calls)

     General routines
     calbec       :    755.62s CPU    779.85s WALL (   15053 calls)
     fft          :     25.97s CPU     26.43s WALL (     323 calls)
     ffts         :      4.14s CPU      4.23s WALL (      50 calls)
     fftw         :  34172.91s CPU  34699.77s WALL (  429178 calls)
     interpolate  :      4.05s CPU      4.15s WALL (      26 calls)

     Parallel routines

     PAW routines
     PAW_pot      :     12.74s CPU     13.14s WALL (      13 calls)
     PAW_symme    :      0.11s CPU      0.12s WALL (      25 calls)

     PWSCF        :  83147.97s CPU  82998.08s WALL


   This run was terminated on:  13: 9:37  14May2025            

=------------------------------------------------------------------------------=
   JOB DONE.
=------------------------------------------------------------------------------=
