
     Program PWSCF v.7.3.1 starts on 24Apr2025 at 15: 8:17 

     This program is part of the open-source Quantum ESPRESSO suite
     for quantum simulation of materials; please cite
         "P. Giannozzi et al., J. Phys.:Condens. Matter 21 395502 (2009);
         "P. Giannozzi et al., J. Phys.:Condens. Matter 29 465901 (2017);
         "P. Giannozzi et al., J. Chem. Phys. 152 154105 (2020);
          URL http://www.quantum-espresso.org", 
     in publications or presentations arising from this work. More details at
     http://www.quantum-espresso.org/quote

     Parallel version (MPI & OpenMP), running on       8 processor cores
     Number of MPI processes:                 8
     Threads/MPI process:                     1

     MPI processes distributed on     3 nodes
     378798 MiB available memory on the printing compute node when the environment starts

     Waiting for input...
     Reading input from standard input

     Current dimensions of program PWSCF are:
     Max number of different atomic species (ntypx) = 10
     Max number of k-points (npk) =  40000
     Max angular momentum in pseudopotentials (lmaxx) =  4
     file Fe.pbe-spn-kjpaw_psl.1.0.0.UPF: wavefunction(s)  3P 3D renormalized

     R & G space division:  proc/nbgrp/npool/nimage =       8
     Subspace diagonalization in iterative solution of the eigenvalue problem:
     a serial algorithm will be used


     Parallelization info
     --------------------
     sticks:   dense  smooth     PW     G-vecs:    dense   smooth      PW
     Min          74      36     12                 1147      393      83
     Max          75      37     13                 1149      395      86
     Sum         599     291     99                 9189     3151     675

     Using Slab Decomposition



     bravais-lattice index     =            3
     lattice parameter (alat)  =       5.4200  a.u.
     unit-cell volume          =      79.6100 (a.u.)^3
     number of atoms/cell      =            1
     number of atomic types    =            1
     number of electrons       =        16.00
     number of Kohn-Sham states=           12
     kinetic-energy cutoff     =      45.0000  Ry
     charge density cutoff     =     360.0000  Ry
     scf convergence threshold =      1.0E-06
     mixing beta               =       0.3000
     number of iterations used =            8  local-TF  mixing
     Exchange-correlation= SLA  PW   PBX  PBC
                           (   1   4   3   4   0   0   0)

     celldm(1)=   5.420000  celldm(2)=   0.000000  celldm(3)=   0.000000
     celldm(4)=   0.000000  celldm(5)=   0.000000  celldm(6)=   0.000000

     crystal axes: (cart. coord. in units of alat)
               a(1) = (   0.500000   0.500000   0.500000 )  
               a(2) = (  -0.500000   0.500000   0.500000 )  
               a(3) = (  -0.500000  -0.500000   0.500000 )  

     reciprocal axes: (cart. coord. in units 2 pi/alat)
               b(1) = (  1.000000  0.000000  1.000000 )  
               b(2) = ( -1.000000  1.000000  0.000000 )  
               b(3) = (  0.000000 -1.000000  1.000000 )  


     PseudoPot. # 1 for Fe read from file:
     ../../pseudopotentials/Fe.pbe-spn-kjpaw_psl.1.0.0.UPF
     MD5 check sum: fc81f059e5c5069939230b1155715ae8
     Pseudo is Projector augmented-wave + core cor, Zval = 16.0
     Generated using &quot;atomic&quot; code by A. Dal Corso  v.6.3
     Shape of augmentation charge: PSQ
     Using radial grid of 1191 points,  6 beta functions with: 
                l(1) =   0
                l(2) =   0
                l(3) =   1
                l(4) =   1
                l(5) =   2
                l(6) =   2
     Q(r) pseudized with 0 coefficients 


     atomic species   valence    mass     pseudopotential
     Fe               16.00    55.84500     Fe( 1.00)

     Starting magnetic structure 
     atomic species   magnetization
     Fe              0.700

     48 Sym. Ops., with inversion, found



   Cartesian axes

     site n.     atom                  positions (alat units)
         1        Fe     tau(   1) = (   0.0000000   0.0000000   0.0000000  )

     number of k points=    29  Marzari-Vanderbilt smearing, width (Ry)=  0.0200
                       cart. coord. in units 2pi/alat
        k(    1) = (   0.0000000   0.0000000   0.0000000), wk =   0.0019531
        k(    2) = (   0.0000000  -0.1250000   0.1250000), wk =   0.0234375
        k(    3) = (   0.0000000  -0.2500000   0.2500000), wk =   0.0234375
        k(    4) = (   0.0000000  -0.3750000   0.3750000), wk =   0.0234375
        k(    5) = (   0.0000000   0.5000000  -0.5000000), wk =   0.0117188
        k(    6) = (  -0.1250000  -0.1250000   0.2500000), wk =   0.0468750
        k(    7) = (  -0.1250000  -0.2500000   0.3750000), wk =   0.0937500
        k(    8) = (  -0.1250000   0.6250000  -0.5000000), wk =   0.0937500
        k(    9) = (  -0.2500000   0.7500000  -0.5000000), wk =   0.0468750
        k(   10) = (  -0.2500000   0.6250000  -0.3750000), wk =   0.0468750
        k(   11) = (   0.0000000   0.0000000   0.2500000), wk =   0.0117188
        k(   12) = (   0.0000000  -0.1250000   0.3750000), wk =   0.0468750
        k(   13) = (   0.0000000  -0.2500000   0.5000000), wk =   0.0468750
        k(   14) = (   0.0000000   0.6250000  -0.3750000), wk =   0.0234375
        k(   15) = (  -0.1250000  -0.1250000   0.5000000), wk =   0.0468750
        k(   16) = (  -0.1250000   0.7500000  -0.3750000), wk =   0.0937500
        k(   17) = (  -0.2500000   0.2500000   0.2500000), wk =   0.0156250
        k(   18) = (  -0.2500000   0.7500000  -0.2500000), wk =   0.0156250
        k(   19) = (   0.6250000  -0.6250000   0.2500000), wk =   0.0468750
        k(   20) = (   0.5000000  -0.5000000   0.2500000), wk =   0.0234375
        k(   21) = (   0.5000000  -0.6250000   0.3750000), wk =   0.0468750
        k(   22) = (   0.0000000   0.0000000   0.5000000), wk =   0.0117188
        k(   23) = (   0.0000000  -0.1250000   0.6250000), wk =   0.0468750
        k(   24) = (   0.0000000   0.7500000  -0.2500000), wk =   0.0234375
        k(   25) = (  -0.1250000   0.8750000  -0.2500000), wk =   0.0468750
        k(   26) = (   0.5000000  -0.5000000   0.5000000), wk =   0.0039062
        k(   27) = (   0.0000000   0.0000000   0.7500000), wk =   0.0117188
        k(   28) = (   0.0000000   0.8750000  -0.1250000), wk =   0.0234375
        k(   29) = (   0.0000000   0.0000000  -1.0000000), wk =   0.0019531

     Dense  grid:     9189 G-vectors     FFT dimensions: (  30,  30,  30)

     Smooth grid:     3151 G-vectors     FFT dimensions: (  20,  20,  20)

     Estimated max dynamical RAM per process >       6.83 MB

     Estimated total dynamical RAM >      54.67 MB

     Check: negative core charge=   -0.000004
     Generating pointlists ...
     new r_m :   0.3572 (alat units)  1.9362 (a.u.) for type    1

     Initial potential from superposition of free atoms

     starting charge      15.9996, renormalised to      16.0000
     Starting wfcs are   10 randomized atomic wfcs +    2 random wfcs
     Checking if some PAW data can be deallocated... 

     total cpu time spent up to now is      359.2 secs

     per-process dynamical memory:   182.9 Mb

     Self-consistent Calculation

     iteration #  1     ecut=    45.00 Ry     beta= 0.30
     Davidson diagonalization with overlap
     ethr =  1.00E-02,  avg # of iterations =  4.4

     negative rho (up, down):  0.000E+00 6.825E-05

     total cpu time spent up to now is     1484.4 secs

     total energy              =    -328.55798097 Ry
     estimated scf accuracy    <       1.50829435 Ry

     total magnetization       =     3.92 Bohr mag/cell
     absolute magnetization    =     3.94 Bohr mag/cell

     iteration #  2     ecut=    45.00 Ry     beta= 0.30
     Davidson diagonalization with overlap
     ethr =  9.43E-03,  avg # of iterations =  1.0

     negative rho (up, down):  0.000E+00 6.618E-04

     total cpu time spent up to now is     2312.6 secs

     total energy              =    -329.09910417 Ry
     estimated scf accuracy    <       0.81360705 Ry

     total magnetization       =     3.56 Bohr mag/cell
     absolute magnetization    =     3.66 Bohr mag/cell

     iteration #  3     ecut=    45.00 Ry     beta= 0.30
     Davidson diagonalization with overlap
     ethr =  5.09E-03,  avg # of iterations =  1.2

     negative rho (up, down):  0.000E+00 2.743E-04

     total cpu time spent up to now is     3141.6 secs

     total energy              =    -329.17931462 Ry
     estimated scf accuracy    <       0.03881074 Ry

     total magnetization       =     2.62 Bohr mag/cell
     absolute magnetization    =     2.83 Bohr mag/cell

     iteration #  4     ecut=    45.00 Ry     beta= 0.30
     Davidson diagonalization with overlap
     ethr =  2.43E-04,  avg # of iterations =  2.4

     negative rho (up, down):  0.000E+00 4.812E-04

     total cpu time spent up to now is     4134.5 secs

     total energy              =    -329.18751816 Ry
     estimated scf accuracy    <       0.04867457 Ry

     total magnetization       =     2.16 Bohr mag/cell
     absolute magnetization    =     2.33 Bohr mag/cell

     iteration #  5     ecut=    45.00 Ry     beta= 0.30
     Davidson diagonalization with overlap
     ethr =  2.43E-04,  avg # of iterations =  2.1

     negative rho (up, down):  0.000E+00 2.925E-04

     total cpu time spent up to now is     5071.0 secs

     total energy              =    -329.20307287 Ry
     estimated scf accuracy    <       0.00433122 Ry

     total magnetization       =     2.43 Bohr mag/cell
     absolute magnetization    =     2.62 Bohr mag/cell

     iteration #  6     ecut=    45.00 Ry     beta= 0.30
     Davidson diagonalization with overlap
     ethr =  2.71E-05,  avg # of iterations =  1.9

     negative rho (up, down):  0.000E+00 2.563E-04

     total cpu time spent up to now is     5972.8 secs

     total energy              =    -329.20313493 Ry
     estimated scf accuracy    <       0.00372794 Ry

     total magnetization       =     2.36 Bohr mag/cell
     absolute magnetization    =     2.53 Bohr mag/cell

     iteration #  7     ecut=    45.00 Ry     beta= 0.30
     Davidson diagonalization with overlap
     ethr =  2.33E-05,  avg # of iterations =  1.2

     negative rho (up, down):  0.000E+00 2.179E-04

     total cpu time spent up to now is     6822.5 secs

     total energy              =    -329.20323658 Ry
     estimated scf accuracy    <       0.00082456 Ry

     total magnetization       =     2.31 Bohr mag/cell
     absolute magnetization    =     2.48 Bohr mag/cell

     iteration #  8     ecut=    45.00 Ry     beta= 0.30
     Davidson diagonalization with overlap

     Program PWSCF v.7.3.1 starts on 24Apr2025 at 19:37:51 

     This program is part of the open-source Quantum ESPRESSO suite
     for quantum simulation of materials; please cite
         "P. Giannozzi et al., J. Phys.:Condens. Matter 21 395502 (2009);
         "P. Giannozzi et al., J. Phys.:Condens. Matter 29 465901 (2017);
         "P. Giannozzi et al., J. Chem. Phys. 152 154105 (2020);
          URL http://www.quantum-espresso.org", 
     in publications or presentations arising from this work. More details at
     http://www.quantum-espresso.org/quote

     Parallel version (MPI & OpenMP), running on       8 processor cores
     Number of MPI processes:                 8
     Threads/MPI process:                     1

     MPI processes distributed on     4 nodes
     434902 MiB available memory on the printing compute node when the environment starts

     Waiting for input...
     Reading input from standard input

     Current dimensions of program PWSCF are:
     Max number of different atomic species (ntypx) = 10
     Max number of k-points (npk) =  40000
     Max angular momentum in pseudopotentials (lmaxx) =  4
     file Fe.pbe-spn-kjpaw_psl.1.0.0.UPF: wavefunction(s)  3P 3D renormalized

     R & G space division:  proc/nbgrp/npool/nimage =       8
     Subspace diagonalization in iterative solution of the eigenvalue problem:
     a serial algorithm will be used


     Parallelization info
     --------------------
     sticks:   dense  smooth     PW     G-vecs:    dense   smooth      PW
     Min          74      36     12                 1147      393      83
     Max          75      37     13                 1149      395      86
     Sum         599     291     99                 9189     3151     675

     Using Slab Decomposition



     bravais-lattice index     =            3
     lattice parameter (alat)  =       5.4200  a.u.
     unit-cell volume          =      79.6100 (a.u.)^3
     number of atoms/cell      =            1
     number of atomic types    =            1
     number of electrons       =        16.00
     number of Kohn-Sham states=           12
     kinetic-energy cutoff     =      45.0000  Ry
     charge density cutoff     =     360.0000  Ry
     scf convergence threshold =      1.0E-06
     mixing beta               =       0.3000
     number of iterations used =            8  local-TF  mixing
     Exchange-correlation= SLA  PW   PBX  PBC
                           (   1   4   3   4   0   0   0)

     celldm(1)=   5.420000  celldm(2)=   0.000000  celldm(3)=   0.000000
     celldm(4)=   0.000000  celldm(5)=   0.000000  celldm(6)=   0.000000

     crystal axes: (cart. coord. in units of alat)
               a(1) = (   0.500000   0.500000   0.500000 )  
               a(2) = (  -0.500000   0.500000   0.500000 )  
               a(3) = (  -0.500000  -0.500000   0.500000 )  

     reciprocal axes: (cart. coord. in units 2 pi/alat)
               b(1) = (  1.000000  0.000000  1.000000 )  
               b(2) = ( -1.000000  1.000000  0.000000 )  
               b(3) = (  0.000000 -1.000000  1.000000 )  


     PseudoPot. # 1 for Fe read from file:
     ../../pseudopotentials/Fe.pbe-spn-kjpaw_psl.1.0.0.UPF
     MD5 check sum: fc81f059e5c5069939230b1155715ae8
     Pseudo is Projector augmented-wave + core cor, Zval = 16.0
     Generated using &quot;atomic&quot; code by A. Dal Corso  v.6.3
     Shape of augmentation charge: PSQ
     Using radial grid of 1191 points,  6 beta functions with: 
                l(1) =   0
                l(2) =   0
                l(3) =   1
                l(4) =   1
                l(5) =   2
                l(6) =   2
     Q(r) pseudized with 0 coefficients 


     atomic species   valence    mass     pseudopotential
     Fe               16.00    55.84500     Fe( 1.00)

     Starting magnetic structure 
     atomic species   magnetization
     Fe              0.700

     48 Sym. Ops., with inversion, found



   Cartesian axes

     site n.     atom                  positions (alat units)
         1        Fe     tau(   1) = (   0.0000000   0.0000000   0.0000000  )

     number of k points=    29  Marzari-Vanderbilt smearing, width (Ry)=  0.0200
                       cart. coord. in units 2pi/alat
        k(    1) = (   0.0000000   0.0000000   0.0000000), wk =   0.0019531
        k(    2) = (   0.0000000  -0.1250000   0.1250000), wk =   0.0234375
        k(    3) = (   0.0000000  -0.2500000   0.2500000), wk =   0.0234375
        k(    4) = (   0.0000000  -0.3750000   0.3750000), wk =   0.0234375
        k(    5) = (   0.0000000   0.5000000  -0.5000000), wk =   0.0117188
        k(    6) = (  -0.1250000  -0.1250000   0.2500000), wk =   0.0468750
        k(    7) = (  -0.1250000  -0.2500000   0.3750000), wk =   0.0937500
        k(    8) = (  -0.1250000   0.6250000  -0.5000000), wk =   0.0937500
        k(    9) = (  -0.2500000   0.7500000  -0.5000000), wk =   0.0468750
        k(   10) = (  -0.2500000   0.6250000  -0.3750000), wk =   0.0468750
        k(   11) = (   0.0000000   0.0000000   0.2500000), wk =   0.0117188
        k(   12) = (   0.0000000  -0.1250000   0.3750000), wk =   0.0468750
        k(   13) = (   0.0000000  -0.2500000   0.5000000), wk =   0.0468750
        k(   14) = (   0.0000000   0.6250000  -0.3750000), wk =   0.0234375
        k(   15) = (  -0.1250000  -0.1250000   0.5000000), wk =   0.0468750
        k(   16) = (  -0.1250000   0.7500000  -0.3750000), wk =   0.0937500
        k(   17) = (  -0.2500000   0.2500000   0.2500000), wk =   0.0156250
        k(   18) = (  -0.2500000   0.7500000  -0.2500000), wk =   0.0156250
        k(   19) = (   0.6250000  -0.6250000   0.2500000), wk =   0.0468750
        k(   20) = (   0.5000000  -0.5000000   0.2500000), wk =   0.0234375
        k(   21) = (   0.5000000  -0.6250000   0.3750000), wk =   0.0468750
        k(   22) = (   0.0000000   0.0000000   0.5000000), wk =   0.0117188
        k(   23) = (   0.0000000  -0.1250000   0.6250000), wk =   0.0468750
        k(   24) = (   0.0000000   0.7500000  -0.2500000), wk =   0.0234375
        k(   25) = (  -0.1250000   0.8750000  -0.2500000), wk =   0.0468750
        k(   26) = (   0.5000000  -0.5000000   0.5000000), wk =   0.0039062
        k(   27) = (   0.0000000   0.0000000   0.7500000), wk =   0.0117188
        k(   28) = (   0.0000000   0.8750000  -0.1250000), wk =   0.0234375
        k(   29) = (   0.0000000   0.0000000  -1.0000000), wk =   0.0019531

     Dense  grid:     9189 G-vectors     FFT dimensions: (  30,  30,  30)

     Smooth grid:     3151 G-vectors     FFT dimensions: (  20,  20,  20)

     Estimated max dynamical RAM per process >       6.83 MB

     Estimated total dynamical RAM >      54.67 MB

     Atomic positions and unit cell read from directory:
     ./tmp/fe_bcc_fm.save/
     Message from routine qexsd_readschema :
     xml data file ./tmp/fe_bcc_fm.save/data-file-schema.xml not found
     Nothing found: using input atomic positions and unit cell


     Check: negative core charge=   -0.000004
     Generating pointlists ...
     new r_m :   0.3572 (alat units)  1.9362 (a.u.) for type    1
     Cannot read rho : file not found

     Initial potential from superposition of free atoms

     starting charge      15.9996, renormalised to      16.0000
     Message from routine qexsd_readschema :
     xml data file ./tmp/fe_bcc_fm.save/data-file-schema.xml not found
     Cannot read wfcs: file not found
     Starting wfcs are   10 randomized atomic wfcs +    2 random wfcs
     Checking if some PAW data can be deallocated... 

     total cpu time spent up to now is      230.8 secs

     per-process dynamical memory:   182.9 Mb

     Self-consistent Calculation

     iteration #  1     ecut=    45.00 Ry     beta= 0.30
     Davidson diagonalization with overlap
     ethr =  1.00E-05,  avg # of iterations =  9.7

     negative rho (up, down):  0.000E+00 6.846E-05

     total cpu time spent up to now is     1632.6 secs

     total energy              =    -328.55846148 Ry
     estimated scf accuracy    <       1.50771228 Ry

     total magnetization       =     3.92 Bohr mag/cell
     absolute magnetization    =     3.94 Bohr mag/cell

     iteration #  2     ecut=    45.00 Ry     beta= 0.30
     Davidson diagonalization with overlap
     ethr =  9.42E-03,  avg # of iterations =  1.0

     negative rho (up, down):  0.000E+00 6.573E-04

     total cpu time spent up to now is     2195.2 secs

     total energy              =    -329.09955327 Ry
     estimated scf accuracy    <       0.81313095 Ry

     total magnetization       =     3.56 Bohr mag/cell
     absolute magnetization    =     3.66 Bohr mag/cell

     iteration #  3     ecut=    45.00 Ry     beta= 0.30
     Davidson diagonalization with overlap
     ethr =  5.08E-03,  avg # of iterations =  1.2

     negative rho (up, down):  0.000E+00 3.232E-04

     total cpu time spent up to now is     2764.6 secs

     total energy              =    -329.18281550 Ry
     estimated scf accuracy    <       0.03864233 Ry

     total magnetization       =     2.62 Bohr mag/cell
     absolute magnetization    =     2.84 Bohr mag/cell

     iteration #  4     ecut=    45.00 Ry     beta= 0.30
     Davidson diagonalization with overlap
     ethr =  2.42E-04,  avg # of iterations =  2.1

     negative rho (up, down):  0.000E+00 5.057E-04

     total cpu time spent up to now is     3411.0 secs

     total energy              =    -329.18989194 Ry
     estimated scf accuracy    <       0.02954681 Ry

     total magnetization       =     2.23 Bohr mag/cell
     absolute magnetization    =     2.41 Bohr mag/cell

     iteration #  5     ecut=    45.00 Ry     beta= 0.30
     Davidson diagonalization with overlap
     ethr =  1.85E-04,  avg # of iterations =  2.0

     negative rho (up, down):  0.000E+00 3.137E-04

     total cpu time spent up to now is     4042.6 secs

     total energy              =    -329.20225774 Ry
     estimated scf accuracy    <       0.01028900 Ry

     total magnetization       =     2.50 Bohr mag/cell
     absolute magnetization    =     2.68 Bohr mag/cell

     iteration #  6     ecut=    45.00 Ry     beta= 0.30
     Davidson diagonalization with overlap
     ethr =  6.43E-05,  avg # of iterations =  1.0

     negative rho (up, down):  0.000E+00 2.597E-04

     total cpu time spent up to now is     4602.6 secs

     total energy              =    -329.20279744 Ry
     estimated scf accuracy    <       0.00270309 Ry

     total magnetization       =     2.39 Bohr mag/cell
     absolute magnetization    =     2.56 Bohr mag/cell

     iteration #  7     ecut=    45.00 Ry     beta= 0.30
     Davidson diagonalization with overlap
     ethr =  1.69E-05,  avg # of iterations =  1.3

     negative rho (up, down):  0.000E+00 2.372E-04

     total cpu time spent up to now is     5168.5 secs

     total energy              =    -329.20342661 Ry
     estimated scf accuracy    <       0.00028676 Ry

     total magnetization       =     2.32 Bohr mag/cell
     absolute magnetization    =     2.48 Bohr mag/cell

     iteration #  8     ecut=    45.00 Ry     beta= 0.30
     Davidson diagonalization with overlap
     ethr =  1.79E-06,  avg # of iterations =  2.2

     negative rho (up, down):  0.000E+00 2.312E-04

     total cpu time spent up to now is     5847.7 secs

     total energy              =    -329.20356220 Ry
     estimated scf accuracy    <       0.00097094 Ry

     total magnetization       =     2.27 Bohr mag/cell
     absolute magnetization    =     2.43 Bohr mag/cell

     iteration #  9     ecut=    45.00 Ry     beta= 0.30
     Davidson diagonalization with overlap
     ethr =  1.79E-06,  avg # of iterations =  1.1

     negative rho (up, down):  0.000E+00 2.108E-04

     total cpu time spent up to now is     6411.6 secs

     total energy              =    -329.20346105 Ry
     estimated scf accuracy    <       0.00044051 Ry

     total magnetization       =     2.26 Bohr mag/cell
     absolute magnetization    =     2.42 Bohr mag/cell

     iteration # 10     ecut=    45.00 Ry     beta= 0.30
     Davidson diagonalization with overlap
     ethr =  1.79E-06,  avg # of iterations =  1.9

     negative rho (up, down):  0.000E+00 2.099E-04

     total cpu time spent up to now is     7026.3 secs

     total energy              =    -329.20352356 Ry
     estimated scf accuracy    <       0.00003390 Ry

     total magnetization       =     2.25 Bohr mag/cell
     absolute magnetization    =     2.40 Bohr mag/cell

     iteration # 11     ecut=    45.00 Ry     beta= 0.30
     Davidson diagonalization with overlap
     ethr =  2.12E-07,  avg # of iterations =  1.0

     negative rho (up, down):  0.000E+00 2.093E-04

     total cpu time spent up to now is     7588.3 secs

     total energy              =    -329.20351997 Ry
     estimated scf accuracy    <       0.00003942 Ry

     total magnetization       =     2.25 Bohr mag/cell
     absolute magnetization    =     2.40 Bohr mag/cell

     iteration # 12     ecut=    45.00 Ry     beta= 0.30
     Davidson diagonalization with overlap
     ethr =  2.12E-07,  avg # of iterations =  2.0

     negative rho (up, down):  0.000E+00 2.082E-04

     Magnetic moment per site  (integrated on atomic sphere of radius R)
     atom   1 (R=0.357)  charge= 14.4227  magn=  2.3182

     total cpu time spent up to now is     8206.6 secs

     End of self-consistent calculation

 ------ SPIN UP ------------


          k = 0.0000 0.0000 0.0000 (   381 PWs)   bands (ev):

   -70.7109 -36.4906 -36.4906 -36.4906   9.1989  15.3081  15.3081  15.3081
    16.4094  16.4094  41.6547  41.6547

          k = 0.0000-0.1250 0.1250 (   396 PWs)   bands (ev):

   -70.7014 -36.5560 -36.5197 -36.4938   9.8119  15.1223  15.2509  15.5706
    16.2646  16.4048  38.3981  40.6450

          k = 0.0000-0.2500 0.2500 (   398 PWs)   bands (ev):

   -70.6777 -36.6794 -36.5628 -36.4951  11.4109  14.7573  15.1308  16.2381
    16.4018  16.4724  32.7853  38.0671

          k = 0.0000-0.3750 0.3750 (   406 PWs)   bands (ev):

   -70.6541 -36.8141 -36.6079 -36.4955  12.6246  14.3979  16.0551  16.5263
    16.5318  17.3308  27.4162  36.0154

          k = 0.0000 0.5000-0.5000 (   392 PWs)   bands (ev):

   -70.6439 -36.8525 -36.6175 -36.4853  12.7629  14.2658  16.5000  16.6071
    17.8032  17.9325  24.5100  35.2705

          k =-0.1250-0.1250 0.2500 (   399 PWs)   bands (ev):

   -70.6847 -36.6453 -36.5370 -36.5091  10.9484  14.9463  14.9544  16.1402
    16.2374  16.5042  35.4565  36.5833

          k =-0.1250-0.2500 0.3750 (   404 PWs)   bands (ev):

   -70.6610 -36.7570 -36.5917 -36.5148  12.5644  14.5373  14.9409  16.2414
    16.6325  17.4418  30.2577  33.9935

          k =-0.1250 0.6250-0.5000 (   407 PWs)   bands (ev):

   -70.6442 -36.8362 -36.6364 -36.5135  13.0300  14.3176  15.7256  16.4326
    16.9381  19.1835  25.5316  32.7246

          k =-0.2500 0.7500-0.5000 (   406 PWs)   bands (ev):

   -70.6442 -36.7990 -36.6520 -36.5330  13.5793  14.2683  14.8735  16.3660
    16.7751  19.6386  28.1489  28.9828

          k =-0.2500 0.6250-0.3750 (   404 PWs)   bands (ev):

   -70.6372 -36.7940 -36.6948 -36.5378  13.7161  14.3316  14.8932  16.5294
    16.8280  22.1821  24.7724  28.0379

          k = 0.0000 0.0000 0.2500 (   398 PWs)   bands (ev):

   -70.6920 -36.5665 -36.5364 -36.5364  10.4006  15.2851  15.2851  15.5926
    15.8677  16.6020  37.7195  39.5365

          k = 0.0000-0.1250 0.3750 (   402 PWs)   bands (ev):

   -70.6692 -36.6753 -36.5841 -36.5414  11.8925  15.0117  15.0436  15.8256
    16.3339  16.8703  33.2121  36.9913

          k = 0.0000-0.2500 0.5000 (   407 PWs)   bands (ev):

   -70.6465 -36.7995 -36.6306 -36.5372  12.9837  14.7188  14.9764  16.2155
    17.2908  17.9045  27.7880  35.0248

          k = 0.0000 0.6250-0.3750 (   410 PWs)   bands (ev):

   -70.6370 -36.8491 -36.6484 -36.5365  13.0601  14.5964  15.2404  16.2247
    17.7332  19.7243  24.5797  34.1912

          k =-0.1250-0.1250 0.5000 (   404 PWs)   bands (ev):

   -70.6473 -36.7537 -36.6347 -36.5648  13.1397  14.4223  15.1848  15.9412
    16.8741  17.9916  30.8209  31.4792

          k =-0.1250 0.7500-0.3750 (   413 PWs)   bands (ev):

   -70.6319 -36.8139 -36.6864 -36.5720  13.5363  14.3648  14.8927  16.2619
    17.2817  20.6572  26.0763  29.8860

          k =-0.2500 0.2500 0.2500 (   411 PWs)   bands (ev):

   -70.6671 -36.7407 -36.5478 -36.5478  12.3892  14.5149  14.5149  16.4103
    16.4103  17.4724  33.1025  33.1025

          k =-0.2500 0.7500-0.2500 (   400 PWs)   bands (ev):

   -70.6255 -36.7579 -36.7579 -36.5702  14.0824  14.0824  14.5711  16.8849
    16.8849  24.2994  24.2994  26.5859

          k = 0.6250-0.6250 0.2500 (   403 PWs)   bands (ev):

   -70.6493 -36.7942 -36.6072 -36.5455  13.5122  14.2561  14.7994  16.4998
    16.5768  19.3590  28.1127  31.5528

          k = 0.5000-0.5000 0.2500 (   406 PWs)   bands (ev):

   -70.6419 -36.8090 -36.6466 -36.5465  13.4837  14.1671  15.4935  16.5636
    16.6040  21.3536  24.7355  31.0079

          k = 0.5000-0.6250 0.3750 (   405 PWs)   bands (ev):

   -70.6410 -36.7627 -36.6658 -36.5783  13.9658  14.3038  14.7124  16.5997
    16.6194  22.3138  26.4171  27.5024

          k = 0.0000 0.0000 0.5000 (   410 PWs)   bands (ev):

   -70.6488 -36.6920 -36.6314 -36.6314  12.9300  14.5853  15.6409  15.6409
    16.3761  17.6214  33.9838  33.9838

          k = 0.0000-0.1250 0.6250 (   418 PWs)   bands (ev):

   -70.6282 -36.7779 -36.6791 -36.6448  13.4708  13.9753  15.6553  16.0526
    17.1631  19.6302  28.8559  31.7023

          k = 0.0000 0.7500-0.2500 (   414 PWs)   bands (ev):

   -70.6195 -36.8114 -36.6987 -36.6384  13.4187  13.9275  15.5864  16.1622
    17.6467  22.4059  25.0165  30.8012

          k =-0.1250 0.8750-0.2500 (   408 PWs)   bands (ev):

   -70.6142 -36.7787 -36.7340 -36.6564  13.5267  13.5360  15.7156  16.7674
    17.3840  22.8151  27.0707  27.7693

          k = 0.5000-0.5000 0.5000 (   420 PWs)   bands (ev):

   -70.6400 -36.6815 -36.6815 -36.6815  14.3432  14.3432  14.3432  16.5900
    16.5900  25.8079  25.8079  25.8079

          k = 0.0000 0.0000 0.7500 (   402 PWs)   bands (ev):

   -70.6094 -36.7520 -36.7164 -36.7164  13.2733  13.3645  16.7232  16.7232
    17.2162  22.0874  29.1744  29.1744

          k = 0.0000 0.8750-0.1250 (   402 PWs)   bands (ev):

   -70.6017 -36.7711 -36.7361 -36.7225  13.0879  13.1320  16.9040  17.0370
    17.5947  25.2558  26.0764  28.1466

          k = 0.0000 0.0000-1.0000 (   418 PWs)   bands (ev):

   -70.5947 -36.7663 -36.7663 -36.7663  12.8356  12.8356  17.5180  17.5180
    17.5180  27.0351  27.0351  27.0351

 ------ SPIN DOWN ----------


          k = 0.0000 0.0000 0.0000 (   381 PWs)   bands (ev):

   -67.9671 -33.7980 -33.7980 -33.7980   9.2944  17.3068  17.3068  17.3068
    19.2234  19.2234  41.3570  41.3570

          k = 0.0000-0.1250 0.1250 (   396 PWs)   bands (ev):

   -67.9565 -33.8696 -33.8287 -33.8012   9.9143  17.0849  17.2245  17.6032
    19.0202  19.2219  38.5636  40.5338

          k = 0.0000-0.2500 0.2500 (   398 PWs)   bands (ev):

   -67.9306 -34.0086 -33.8765 -33.8023  11.6023  16.6392  16.9424  18.5296
    18.8716  19.3051  33.4016  38.0979

          k = 0.0000-0.3750 0.3750 (   406 PWs)   bands (ev):

   -67.9046 -34.1578 -33.9258 -33.8030  13.4623  16.2092  17.0678  19.0029
    19.3973  19.5904  28.4082  36.0142

          k = 0.0000 0.5000-0.5000 (   392 PWs)   bands (ev):

   -67.8937 -34.2022 -33.9373 -33.7935  14.0457  16.0495  17.9673  19.1115
    19.4911  20.1339  25.9105  35.2399

          k =-0.1250-0.1250 0.2500 (   399 PWs)   bands (ev):

   -67.9382 -33.9693 -33.8485 -33.8179  11.0835  16.8452  16.8823  18.3151
    18.8038  19.3273  35.8548  36.9659

          k =-0.1250-0.2500 0.3750 (   404 PWs)   bands (ev):

   -67.9123 -34.0945 -33.9087 -33.8242  12.9964  16.3619  16.5866  18.8153
    19.3571  19.6094  31.0115  34.4427

          k =-0.1250 0.6250-0.5000 (   407 PWs)   bands (ev):

   -67.8939 -34.1823 -33.9579 -33.8233  14.2528  16.0831  16.9830  19.0106
    19.5385  20.8333  26.6998  33.1607

          k =-0.2500 0.7500-0.5000 (   406 PWs)   bands (ev):

   -67.8939 -34.1405 -33.9764 -33.8446  14.6068  15.9679  16.3898  18.9224
    19.4632  21.3529  29.0098  29.6828

          k =-0.2500 0.6250-0.3750 (   404 PWs)   bands (ev):

   -67.8862 -34.1354 -34.0246 -33.8499  15.1712  15.9937  16.3185  19.1077
    19.4185  23.3711  25.9357  28.7767

          k = 0.0000 0.0000 0.2500 (   398 PWs)   bands (ev):

   -67.9462 -33.8822 -33.8476 -33.8476  10.5151  17.2433  17.2433  17.6300
    18.5096  19.4535  37.8473  39.8680

          k = 0.0000-0.1250 0.3750 (   402 PWs)   bands (ev):

   -67.9213 -34.0037 -33.9000 -33.8535  12.1265  16.9468  16.9955  18.1919
    18.4507  19.6577  33.8237  37.2509

          k = 0.0000-0.2500 0.5000 (   407 PWs)   bands (ev):

   -67.8963 -34.1416 -33.9510 -33.8490  13.8963  16.5609  16.6334  18.5693
    19.5410  20.0663  28.7329  35.6582

          k = 0.0000 0.6250-0.3750 (   410 PWs)   bands (ev):

   -67.8859 -34.1968 -33.9705 -33.8482  14.4506  16.4143  16.8270  18.6662
    20.0594  21.0148  25.9088  34.7401

          k =-0.1250-0.1250 0.5000 (   404 PWs)   bands (ev):

   -67.8973 -34.0908 -33.9565 -33.8791  13.7796  16.3938  17.0033  18.1809
    19.2110  20.1951  31.5948  32.1001

          k =-0.1250 0.7500-0.3750 (   413 PWs)   bands (ev):

   -67.8804 -34.1569 -34.0135 -33.8865  14.9468  16.0619  16.6970  18.5598
    19.6082  22.0813  27.1095  30.5551

          k =-0.2500 0.2500 0.2500 (   411 PWs)   bands (ev):

   -67.9189 -34.0758 -33.8599 -33.8599  12.6308  16.3227  16.3227  19.1769
    19.1769  19.5319  33.6031  33.6031

          k =-0.2500 0.7500-0.2500 (   400 PWs)   bands (ev):

   -67.8737 -34.0952 -34.0952 -33.8850  15.7846  15.7846  16.2406  19.1872
    19.1872  25.3705  25.3705  27.4347

          k = 0.6250-0.6250 0.2500 (   403 PWs)   bands (ev):

   -67.8995 -34.1358 -33.9271 -33.8586  14.3976  15.9622  16.1644  19.2290
    19.4313  21.1272  28.9421  32.0670

          k = 0.5000-0.5000 0.2500 (   406 PWs)   bands (ev):

   -67.8914 -34.1519 -33.9708 -33.8601  14.8363  15.8349  16.6415  19.2866
    19.4940  22.5599  25.9548  31.5156

          k = 0.5000-0.6250 0.3750 (   405 PWs)   bands (ev):

   -67.8904 -34.1009 -33.9928 -33.8953  15.4047  15.8118  16.0085  19.3950
    19.4714  23.5636  27.3029  28.2714

          k = 0.0000 0.0000 0.5000 (   410 PWs)   bands (ev):

   -67.8988 -34.0220 -33.9521 -33.9521  13.4439  16.8490  17.5712  17.5712
    18.5135  20.0556  34.5984  34.5984

          k = 0.0000-0.1250 0.6250 (   418 PWs)   bands (ev):

   -67.8763 -34.1162 -34.0044 -33.9668  14.6961  15.9602  17.5901  18.1147
    19.3964  21.2192  29.6458  32.2706

          k = 0.0000 0.7500-0.2500 (   414 PWs)   bands (ev):

   -67.8669 -34.1543 -34.0263 -33.9600  15.1385  15.6479  17.5127  18.2490
    19.9604  23.4162  26.0924  31.3147

          k =-0.1250 0.8750-0.2500 (   408 PWs)   bands (ev):

   -67.8613 -34.1181 -34.0668 -33.9795  15.2091  15.4116  17.6082  18.8981
    19.6402  23.8559  27.8827  28.4179

          k = 0.5000-0.5000 0.5000 (   420 PWs)   bands (ev):

   -67.8890 -34.0094 -34.0094 -34.0094  15.7743  15.7743  15.7743  19.4869
    19.4869  26.6923  26.6923  26.6924

          k = 0.0000 0.0000 0.7500 (   402 PWs)   bands (ev):

   -67.8560 -34.0882 -34.0473 -34.0473  14.9096  15.3148  18.7898  18.7898
    19.4637  23.0582  29.6439  29.6439

          k = 0.0000 0.8750-0.1250 (   402 PWs)   bands (ev):

   -67.8477 -34.1089 -34.0695 -34.0539  14.9399  14.9447  19.0314  19.1695
    19.8963  25.8726  26.6748  28.5196

          k = 0.0000 0.0000-1.0000 (   418 PWs)   bands (ev):

   -67.8399 -34.1016 -34.1016 -34.1016  14.6790  14.6790  19.8149  19.8149
    19.8149  27.2629  27.2629  27.2629

     the Fermi energy is    17.4693 ev

!    total energy              =    -329.20353256 Ry
     total all-electron energy =     -2545.500066 Ry
     estimated scf accuracy    <       0.00000035 Ry
     smearing contrib. (-TS)   =       0.00063951 Ry
     internal energy E=F+TS    =    -329.20417207 Ry

     The total energy is F=E-TS. E is the sum of the following terms:
     one-electron contribution =    -112.96112943 Ry
     hartree contribution      =      66.15364535 Ry
     xc contribution           =     -27.73134791 Ry
     ewald contribution        =    -171.88999319 Ry
     one-center paw contrib.   =     -82.77534689 Ry

     total magnetization       =     2.25 Bohr mag/cell
     absolute magnetization    =     2.40 Bohr mag/cell

     convergence has been achieved in  12 iterations

     negative rho (up, down):  0.000E+00 2.082E-04

     Forces acting on atoms (cartesian axes, Ry/au):

     atom    1 type  1   force =     0.00000000    0.00000000    0.00000000

     Total force =     0.000000     Total SCF correction =     0.000000


     Computing stress (Cartesian axis) and pressure


     negative rho (up, down):  0.000E+00 2.082E-04
          total   stress  (Ry/bohr**3)                   (kbar)     P=     -939.01
  -0.00638328  -0.00000000   0.00000000         -939.01       -0.00        0.00
  -0.00000000  -0.00638328   0.00000000           -0.00     -939.01        0.00
   0.00000000  -0.00000000  -0.00638328            0.00       -0.00     -939.01


     Writing all to output data dir ./tmp/fe_bcc_fm.save/ :
     XML data file, charge density, pseudopotentials, collected wavefunctions

     init_run     :    195.95s CPU    228.50s WALL (       1 calls)
     electrons    :   6851.37s CPU   7975.81s WALL (       1 calls)
     forces       :     82.87s CPU     96.47s WALL (       1 calls)
     stress       :    113.52s CPU    131.53s WALL (       1 calls)

     Called by init_run:
     wfcinit      :    184.05s CPU    214.59s WALL (       1 calls)
     potinit      :     10.57s CPU     12.36s WALL (       1 calls)
     hinit0       :      0.99s CPU      1.12s WALL (       1 calls)

     Called by electrons:
     c_bands      :   5500.81s CPU   6404.34s WALL (      12 calls)
     sum_band     :   1248.25s CPU   1452.11s WALL (      12 calls)
     v_of_rho     :     17.58s CPU     20.39s WALL (      13 calls)
     newd         :      5.12s CPU      5.97s WALL (      13 calls)
     PAW_pot      :     13.34s CPU     15.78s WALL (      13 calls)
     mix_rho      :     65.00s CPU     75.73s WALL (      12 calls)

     Called by c_bands:
     init_us_2    :      0.05s CPU      0.06s WALL (    1566 calls)
     cegterg      :   5471.66s CPU   6370.11s WALL (     696 calls)

     Called by *egterg:
     cdiaghg      :      0.41s CPU      0.50s WALL (    2232 calls)
     h_psi        :   5437.13s CPU   6331.90s WALL (    2290 calls)
     s_psi        :      0.01s CPU      0.01s WALL (    2290 calls)
     g_psi        :      0.00s CPU      0.00s WALL (    1536 calls)

     Called by h_psi:
     h_psi:calbec :    181.36s CPU    211.29s WALL (    2290 calls)
     vloc_psi     :   5255.73s CPU   6120.56s WALL (    2290 calls)
     add_vuspsi   :      0.02s CPU      0.02s WALL (    2290 calls)

     General routines
     calbec       :    426.20s CPU    495.62s WALL (    3276 calls)
     fft          :     35.87s CPU     41.76s WALL (     363 calls)
     ffts         :     28.55s CPU     33.25s WALL (     265 calls)
     fftw         :   6442.29s CPU   7500.89s WALL (   50464 calls)
     interpolate  :     11.07s CPU     12.91s WALL (      26 calls)

     Parallel routines

     PWSCF        :   7250.56s CPU   8441.16s WALL


   This run was terminated on:  21:58:32  24Apr2025            

=------------------------------------------------------------------------------=
   JOB DONE.
=------------------------------------------------------------------------------=
