
     Program PWSCF v.7.3.1 starts on 23May2025 at  0:27:39 

     This program is part of the open-source Quantum ESPRESSO suite
     for quantum simulation of materials; please cite
         "P. Giannozzi et al., J. Phys.:Condens. Matter 21 395502 (2009);
         "P. Giannozzi et al., J. Phys.:Condens. Matter 29 465901 (2017);
         "P. Giannozzi et al., J. Chem. Phys. 152 154105 (2020);
          URL http://www.quantum-espresso.org", 
     in publications or presentations arising from this work. More details at
     http://www.quantum-espresso.org/quote

     Parallel version (MPI & OpenMP), running on     128 processor cores
     Number of MPI processes:               128
     Threads/MPI process:                     1

     MPI processes distributed on     1 nodes
     457117 MiB available memory on the printing compute node when the environment starts

     Waiting for input...
     Reading input from standard input

     Current dimensions of program PWSCF are:
     Max number of different atomic species (ntypx) = 10
     Max number of k-points (npk) =  40000
     Max angular momentum in pseudopotentials (lmaxx) =  4
     file Fe.pbe-spn-kjpaw_psl.1.0.0.UPF: wavefunction(s)  3P 3D renormalized
     Found identity + (  0.1667  0.1667  0.1667) symmetry
     This is a supercell, fractional translations are disabled
     Message from routine setup:
     using ibrav=0 with symmetry is DISCOURAGED, use correct ibrav instead

     K-points division:     npool     =       8
     R & G space division:  proc/nbgrp/npool/nimage =      16
     Subspace diagonalization in iterative solution of the eigenvalue problem:
     one sub-group per band group will be used
     ELPA distributed-memory algorithm (size of sub-group:  4*  4 procs)


     Parallelization info
     --------------------
     sticks:   dense  smooth     PW     G-vecs:    dense   smooth      PW
     Min        1420     473    126               161001    30976    4292
     Max        1422     475    127               161002    30980    4295
     Sum       22725    7589   2025              2576031   495639   68699

     Using Slab Decomposition



     bravais-lattice index     =            0
     lattice parameter (alat)  =      16.2598  a.u.
     unit-cell volume          =    4298.7603 (a.u.)^3
     number of atoms/cell      =           54
     number of atomic types    =            1
     number of electrons       =       864.00
     number of Kohn-Sham states=          518
     kinetic-energy cutoff     =      90.0000  Ry
     charge density cutoff     =    1080.0000  Ry
     scf convergence threshold =      1.0E-08
     mixing beta               =       0.2000
     number of iterations used =            8  plain     mixing
     Exchange-correlation= SLA  PW   PBX  PBC
                           (   1   4   3   4   0   0   0)

     celldm(1)=  16.259770  celldm(2)=   0.000000  celldm(3)=   0.000000
     celldm(4)=   0.000000  celldm(5)=   0.000000  celldm(6)=   0.000000

     crystal axes: (cart. coord. in units of alat)
               a(1) = (   1.000000   0.000000   0.000000 )  
               a(2) = (   0.000000   1.000000   0.000000 )  
               a(3) = (   0.000000   0.000000   1.000000 )  

     reciprocal axes: (cart. coord. in units 2 pi/alat)
               b(1) = (  1.000000  0.000000  0.000000 )  
               b(2) = (  0.000000  1.000000  0.000000 )  
               b(3) = (  0.000000  0.000000  1.000000 )  


     PseudoPot. # 1 for Fe read from file:
     ./pseudo/Fe.pbe-spn-kjpaw_psl.1.0.0.UPF
     MD5 check sum: fc81f059e5c5069939230b1155715ae8
     Pseudo is Projector augmented-wave + core cor, Zval = 16.0
     Generated using &quot;atomic&quot; code by A. Dal Corso  v.6.3
     Shape of augmentation charge: PSQ
     Using radial grid of 1191 points,  6 beta functions with: 
                l(1) =   0
                l(2) =   0
                l(3) =   1
                l(4) =   1
                l(5) =   2
                l(6) =   2
     Q(r) pseudized with 0 coefficients 


     atomic species   valence    mass     pseudopotential
     Fe               16.00    55.84500     Fe( 1.00)

     Starting magnetic structure 
     atomic species   magnetization
     Fe              0.400

     48 Sym. Ops., with inversion, found


                                    s                        frac. trans.

      isym =  1     identity                                     

 cryst.   s( 1) = (     1          0          0      )
                  (     0          1          0      )
                  (     0          0          1      )

 cart.    s( 1) = (  1.0000000  0.0000000  0.0000000 )
                  (  0.0000000  1.0000000  0.0000000 )
                  (  0.0000000  0.0000000  1.0000000 )


      isym =  2     180 deg rotation - cart. axis [0,0,1]        

 cryst.   s( 2) = (    -1          0          0      )
                  (     0         -1          0      )
                  (     0          0          1      )

 cart.    s( 2) = ( -1.0000000  0.0000000  0.0000000 )
                  (  0.0000000 -1.0000000  0.0000000 )
                  (  0.0000000  0.0000000  1.0000000 )


      isym =  3     180 deg rotation - cart. axis [0,1,0]        

 cryst.   s( 3) = (    -1          0          0      )
                  (     0          1          0      )
                  (     0          0         -1      )

 cart.    s( 3) = ( -1.0000000  0.0000000  0.0000000 )
                  (  0.0000000  1.0000000  0.0000000 )
                  (  0.0000000  0.0000000 -1.0000000 )


      isym =  4     180 deg rotation - cart. axis [1,0,0]        

 cryst.   s( 4) = (     1          0          0      )
                  (     0         -1          0      )
                  (     0          0         -1      )

 cart.    s( 4) = (  1.0000000  0.0000000  0.0000000 )
                  (  0.0000000 -1.0000000  0.0000000 )
                  (  0.0000000  0.0000000 -1.0000000 )


      isym =  5     180 deg rotation - cart. axis [1,1,0]        

 cryst.   s( 5) = (     0          1          0      )
                  (     1          0          0      )
                  (     0          0         -1      )

 cart.    s( 5) = (  0.0000000  1.0000000  0.0000000 )
                  (  1.0000000  0.0000000  0.0000000 )
                  (  0.0000000  0.0000000 -1.0000000 )


      isym =  6     180 deg rotation - cart. axis [1,-1,0]       

 cryst.   s( 6) = (     0         -1          0      )
                  (    -1          0          0      )
                  (     0          0         -1      )

 cart.    s( 6) = (  0.0000000 -1.0000000  0.0000000 )
                  ( -1.0000000  0.0000000  0.0000000 )
                  (  0.0000000  0.0000000 -1.0000000 )


      isym =  7      90 deg rotation - cart. axis [0,0,-1]       

 cryst.   s( 7) = (     0         -1          0      )
                  (     1          0          0      )
                  (     0          0          1      )

 cart.    s( 7) = (  0.0000000  1.0000000  0.0000000 )
                  ( -1.0000000  0.0000000  0.0000000 )
                  (  0.0000000  0.0000000  1.0000000 )


      isym =  8      90 deg rotation - cart. axis [0,0,1]        

 cryst.   s( 8) = (     0          1          0      )
                  (    -1          0          0      )
                  (     0          0          1      )

 cart.    s( 8) = (  0.0000000 -1.0000000  0.0000000 )
                  (  1.0000000  0.0000000  0.0000000 )
                  (  0.0000000  0.0000000  1.0000000 )


      isym =  9     180 deg rotation - cart. axis [1,0,1]        

 cryst.   s( 9) = (     0          0          1      )
                  (     0         -1          0      )
                  (     1          0          0      )

 cart.    s( 9) = (  0.0000000  0.0000000  1.0000000 )
                  (  0.0000000 -1.0000000  0.0000000 )
                  (  1.0000000  0.0000000  0.0000000 )


      isym = 10     180 deg rotation - cart. axis [-1,0,1]       

 cryst.   s(10) = (     0          0         -1      )
                  (     0         -1          0      )
                  (    -1          0          0      )

 cart.    s(10) = (  0.0000000  0.0000000 -1.0000000 )
                  (  0.0000000 -1.0000000  0.0000000 )
                  ( -1.0000000  0.0000000  0.0000000 )


      isym = 11      90 deg rotation - cart. axis [0,1,0]        

 cryst.   s(11) = (     0          0         -1      )
                  (     0          1          0      )
                  (     1          0          0      )

 cart.    s(11) = (  0.0000000  0.0000000  1.0000000 )
                  (  0.0000000  1.0000000  0.0000000 )
                  ( -1.0000000  0.0000000  0.0000000 )


      isym = 12      90 deg rotation - cart. axis [0,-1,0]       

 cryst.   s(12) = (     0          0          1      )
                  (     0          1          0      )
                  (    -1          0          0      )

 cart.    s(12) = (  0.0000000  0.0000000 -1.0000000 )
                  (  0.0000000  1.0000000  0.0000000 )
                  (  1.0000000  0.0000000  0.0000000 )


      isym = 13     180 deg rotation - cart. axis [0,1,1]        

 cryst.   s(13) = (    -1          0          0      )
                  (     0          0          1      )
                  (     0          1          0      )

 cart.    s(13) = ( -1.0000000  0.0000000  0.0000000 )
                  (  0.0000000  0.0000000  1.0000000 )
                  (  0.0000000  1.0000000  0.0000000 )


      isym = 14     180 deg rotation - cart. axis [0,1,-1]       

 cryst.   s(14) = (    -1          0          0      )
                  (     0          0         -1      )
                  (     0         -1          0      )

 cart.    s(14) = ( -1.0000000  0.0000000  0.0000000 )
                  (  0.0000000  0.0000000 -1.0000000 )
                  (  0.0000000 -1.0000000  0.0000000 )


      isym = 15      90 deg rotation - cart. axis [-1,0,0]       

 cryst.   s(15) = (     1          0          0      )
                  (     0          0         -1      )
                  (     0          1          0      )

 cart.    s(15) = (  1.0000000  0.0000000  0.0000000 )
                  (  0.0000000  0.0000000  1.0000000 )
                  (  0.0000000 -1.0000000  0.0000000 )


      isym = 16      90 deg rotation - cart. axis [1,0,0]        

 cryst.   s(16) = (     1          0          0      )
                  (     0          0          1      )
                  (     0         -1          0      )

 cart.    s(16) = (  1.0000000  0.0000000  0.0000000 )
                  (  0.0000000  0.0000000 -1.0000000 )
                  (  0.0000000  1.0000000  0.0000000 )


      isym = 17     120 deg rotation - cart. axis [-1,-1,-1]     

 cryst.   s(17) = (     0          0          1      )
                  (     1          0          0      )
                  (     0          1          0      )

 cart.    s(17) = (  0.0000000  1.0000000  0.0000000 )
                  (  0.0000000  0.0000000  1.0000000 )
                  (  1.0000000  0.0000000  0.0000000 )


      isym = 18     120 deg rotation - cart. axis [-1,1,1]       

 cryst.   s(18) = (     0          0         -1      )
                  (    -1          0          0      )
                  (     0          1          0      )

 cart.    s(18) = (  0.0000000 -1.0000000  0.0000000 )
                  (  0.0000000  0.0000000  1.0000000 )
                  ( -1.0000000  0.0000000  0.0000000 )


      isym = 19     120 deg rotation - cart. axis [1,1,-1]       

 cryst.   s(19) = (     0          0         -1      )
                  (     1          0          0      )
                  (     0         -1          0      )

 cart.    s(19) = (  0.0000000  1.0000000  0.0000000 )
                  (  0.0000000  0.0000000 -1.0000000 )
                  ( -1.0000000  0.0000000  0.0000000 )


      isym = 20     120 deg rotation - cart. axis [1,-1,1]       

 cryst.   s(20) = (     0          0          1      )
                  (    -1          0          0      )
                  (     0         -1          0      )

 cart.    s(20) = (  0.0000000 -1.0000000  0.0000000 )
                  (  0.0000000  0.0000000 -1.0000000 )
                  (  1.0000000  0.0000000  0.0000000 )


      isym = 21     120 deg rotation - cart. axis [1,1,1]        

 cryst.   s(21) = (     0          1          0      )
                  (     0          0          1      )
                  (     1          0          0      )

 cart.    s(21) = (  0.0000000  0.0000000  1.0000000 )
                  (  1.0000000  0.0000000  0.0000000 )
                  (  0.0000000  1.0000000  0.0000000 )


      isym = 22     120 deg rotation - cart. axis [-1,1,-1]      

 cryst.   s(22) = (     0         -1          0      )
                  (     0          0         -1      )
                  (     1          0          0      )

 cart.    s(22) = (  0.0000000  0.0000000  1.0000000 )
                  ( -1.0000000  0.0000000  0.0000000 )
                  (  0.0000000 -1.0000000  0.0000000 )


      isym = 23     120 deg rotation - cart. axis [1,-1,-1]      

 cryst.   s(23) = (     0         -1          0      )
                  (     0          0          1      )
                  (    -1          0          0      )

 cart.    s(23) = (  0.0000000  0.0000000 -1.0000000 )
                  ( -1.0000000  0.0000000  0.0000000 )
                  (  0.0000000  1.0000000  0.0000000 )


      isym = 24     120 deg rotation - cart. axis [-1,-1,1]      

 cryst.   s(24) = (     0          1          0      )
                  (     0          0         -1      )
                  (    -1          0          0      )

 cart.    s(24) = (  0.0000000  0.0000000 -1.0000000 )
                  (  1.0000000  0.0000000  0.0000000 )
                  (  0.0000000 -1.0000000  0.0000000 )


      isym = 25     inversion                                    

 cryst.   s(25) = (    -1          0          0      )
                  (     0         -1          0      )
                  (     0          0         -1      )

 cart.    s(25) = ( -1.0000000  0.0000000  0.0000000 )
                  (  0.0000000 -1.0000000  0.0000000 )
                  (  0.0000000  0.0000000 -1.0000000 )


      isym = 26     inv. 180 deg rotation - cart. axis [0,0,1]   

 cryst.   s(26) = (     1          0          0      )
                  (     0          1          0      )
                  (     0          0         -1      )

 cart.    s(26) = (  1.0000000  0.0000000  0.0000000 )
                  (  0.0000000  1.0000000  0.0000000 )
                  (  0.0000000  0.0000000 -1.0000000 )


      isym = 27     inv. 180 deg rotation - cart. axis [0,1,0]   

 cryst.   s(27) = (     1          0          0      )
                  (     0         -1          0      )
                  (     0          0          1      )

 cart.    s(27) = (  1.0000000  0.0000000  0.0000000 )
                  (  0.0000000 -1.0000000  0.0000000 )
                  (  0.0000000  0.0000000  1.0000000 )


      isym = 28     inv. 180 deg rotation - cart. axis [1,0,0]   

 cryst.   s(28) = (    -1          0          0      )
                  (     0          1          0      )
                  (     0          0          1      )

 cart.    s(28) = ( -1.0000000  0.0000000  0.0000000 )
                  (  0.0000000  1.0000000  0.0000000 )
                  (  0.0000000  0.0000000  1.0000000 )


      isym = 29     inv. 180 deg rotation - cart. axis [1,1,0]   

 cryst.   s(29) = (     0         -1          0      )
                  (    -1          0          0      )
                  (     0          0          1      )

 cart.    s(29) = (  0.0000000 -1.0000000  0.0000000 )
                  ( -1.0000000  0.0000000  0.0000000 )
                  (  0.0000000  0.0000000  1.0000000 )


      isym = 30     inv. 180 deg rotation - cart. axis [1,-1,0]  

 cryst.   s(30) = (     0          1          0      )
                  (     1          0          0      )
                  (     0          0          1      )

 cart.    s(30) = (  0.0000000  1.0000000  0.0000000 )
                  (  1.0000000  0.0000000  0.0000000 )
                  (  0.0000000  0.0000000  1.0000000 )


      isym = 31     inv.  90 deg rotation - cart. axis [0,0,-1]  

 cryst.   s(31) = (     0          1          0      )
                  (    -1          0          0      )
                  (     0          0         -1      )

 cart.    s(31) = (  0.0000000 -1.0000000  0.0000000 )
                  (  1.0000000  0.0000000  0.0000000 )
                  (  0.0000000  0.0000000 -1.0000000 )


      isym = 32     inv.  90 deg rotation - cart. axis [0,0,1]   

 cryst.   s(32) = (     0         -1          0      )
                  (     1          0          0      )
                  (     0          0         -1      )

 cart.    s(32) = (  0.0000000  1.0000000  0.0000000 )
                  ( -1.0000000  0.0000000  0.0000000 )
                  (  0.0000000  0.0000000 -1.0000000 )


      isym = 33     inv. 180 deg rotation - cart. axis [1,0,1]   

 cryst.   s(33) = (     0          0         -1      )
                  (     0          1          0      )
                  (    -1          0          0      )

 cart.    s(33) = (  0.0000000  0.0000000 -1.0000000 )
                  (  0.0000000  1.0000000  0.0000000 )
                  ( -1.0000000  0.0000000  0.0000000 )


      isym = 34     inv. 180 deg rotation - cart. axis [-1,0,1]  

 cryst.   s(34) = (     0          0          1      )
                  (     0          1          0      )
                  (     1          0          0      )

 cart.    s(34) = (  0.0000000  0.0000000  1.0000000 )
                  (  0.0000000  1.0000000  0.0000000 )
                  (  1.0000000  0.0000000  0.0000000 )


      isym = 35     inv.  90 deg rotation - cart. axis [0,1,0]   

 cryst.   s(35) = (     0          0          1      )
                  (     0         -1          0      )
                  (    -1          0          0      )

 cart.    s(35) = (  0.0000000  0.0000000 -1.0000000 )
                  (  0.0000000 -1.0000000  0.0000000 )
                  (  1.0000000  0.0000000  0.0000000 )


      isym = 36     inv.  90 deg rotation - cart. axis [0,-1,0]  

 cryst.   s(36) = (     0          0         -1      )
                  (     0         -1          0      )
                  (     1          0          0      )

 cart.    s(36) = (  0.0000000  0.0000000  1.0000000 )
                  (  0.0000000 -1.0000000  0.0000000 )
                  ( -1.0000000  0.0000000  0.0000000 )


      isym = 37     inv. 180 deg rotation - cart. axis [0,1,1]   

 cryst.   s(37) = (     1          0          0      )
                  (     0          0         -1      )
                  (     0         -1          0      )

 cart.    s(37) = (  1.0000000  0.0000000  0.0000000 )
                  (  0.0000000  0.0000000 -1.0000000 )
                  (  0.0000000 -1.0000000  0.0000000 )


      isym = 38     inv. 180 deg rotation - cart. axis [0,1,-1]  

 cryst.   s(38) = (     1          0          0      )
                  (     0          0          1      )
                  (     0          1          0      )

 cart.    s(38) = (  1.0000000  0.0000000  0.0000000 )
                  (  0.0000000  0.0000000  1.0000000 )
                  (  0.0000000  1.0000000  0.0000000 )


      isym = 39     inv.  90 deg rotation - cart. axis [-1,0,0]  

 cryst.   s(39) = (    -1          0          0      )
                  (     0          0          1      )
                  (     0         -1          0      )

 cart.    s(39) = ( -1.0000000  0.0000000  0.0000000 )
                  (  0.0000000  0.0000000 -1.0000000 )
                  (  0.0000000  1.0000000  0.0000000 )


      isym = 40     inv.  90 deg rotation - cart. axis [1,0,0]   

 cryst.   s(40) = (    -1          0          0      )
                  (     0          0         -1      )
                  (     0          1          0      )

 cart.    s(40) = ( -1.0000000  0.0000000  0.0000000 )
                  (  0.0000000  0.0000000  1.0000000 )
                  (  0.0000000 -1.0000000  0.0000000 )


      isym = 41     inv. 120 deg rotation - cart. axis [-1,-1,-1]

 cryst.   s(41) = (     0          0         -1      )
                  (    -1          0          0      )
                  (     0         -1          0      )

 cart.    s(41) = (  0.0000000 -1.0000000  0.0000000 )
                  (  0.0000000  0.0000000 -1.0000000 )
                  ( -1.0000000  0.0000000  0.0000000 )


      isym = 42     inv. 120 deg rotation - cart. axis [-1,1,1]  

 cryst.   s(42) = (     0          0          1      )
                  (     1          0          0      )
                  (     0         -1          0      )

 cart.    s(42) = (  0.0000000  1.0000000  0.0000000 )
                  (  0.0000000  0.0000000 -1.0000000 )
                  (  1.0000000  0.0000000  0.0000000 )


      isym = 43     inv. 120 deg rotation - cart. axis [1,1,-1]  

 cryst.   s(43) = (     0          0          1      )
                  (    -1          0          0      )
                  (     0          1          0      )

 cart.    s(43) = (  0.0000000 -1.0000000  0.0000000 )
                  (  0.0000000  0.0000000  1.0000000 )
                  (  1.0000000  0.0000000  0.0000000 )


      isym = 44     inv. 120 deg rotation - cart. axis [1,-1,1]  

 cryst.   s(44) = (     0          0         -1      )
                  (     1          0          0      )
                  (     0          1          0      )

 cart.    s(44) = (  0.0000000  1.0000000  0.0000000 )
                  (  0.0000000  0.0000000  1.0000000 )
                  ( -1.0000000  0.0000000  0.0000000 )


      isym = 45     inv. 120 deg rotation - cart. axis [1,1,1]   

 cryst.   s(45) = (     0         -1          0      )
                  (     0          0         -1      )
                  (    -1          0          0      )

 cart.    s(45) = (  0.0000000  0.0000000 -1.0000000 )
                  ( -1.0000000  0.0000000  0.0000000 )
                  (  0.0000000 -1.0000000  0.0000000 )


      isym = 46     inv. 120 deg rotation - cart. axis [-1,1,-1] 

 cryst.   s(46) = (     0          1          0      )
                  (     0          0          1      )
                  (    -1          0          0      )

 cart.    s(46) = (  0.0000000  0.0000000 -1.0000000 )
                  (  1.0000000  0.0000000  0.0000000 )
                  (  0.0000000  1.0000000  0.0000000 )


      isym = 47     inv. 120 deg rotation - cart. axis [1,-1,-1] 

 cryst.   s(47) = (     0          1          0      )
                  (     0          0         -1      )
                  (     1          0          0      )

 cart.    s(47) = (  0.0000000  0.0000000  1.0000000 )
                  (  1.0000000  0.0000000  0.0000000 )
                  (  0.0000000 -1.0000000  0.0000000 )


      isym = 48     inv. 120 deg rotation - cart. axis [-1,-1,1] 

 cryst.   s(48) = (     0         -1          0      )
                  (     0          0          1      )
                  (     1          0          0      )

 cart.    s(48) = (  0.0000000  0.0000000  1.0000000 )
                  ( -1.0000000  0.0000000  0.0000000 )
                  (  0.0000000  1.0000000  0.0000000 )


   Cartesian axes

     site n.     atom                  positions (alat units)
         1        Fe     tau(   1) = (   0.0000000   0.0000000   0.0000000  )
         2        Fe     tau(   2) = (   0.1666667   0.1666667   0.1666667  )
         3        Fe     tau(   3) = (   0.0000000   0.0000000   0.3333333  )
         4        Fe     tau(   4) = (   0.1666667   0.1666667   0.5000000  )
         5        Fe     tau(   5) = (   0.0000000   0.0000000   0.6666667  )
         6        Fe     tau(   6) = (   0.1666667   0.1666667   0.8333333  )
         7        Fe     tau(   7) = (   0.0000000   0.3333333   0.0000000  )
         8        Fe     tau(   8) = (   0.1666667   0.5000000   0.1666667  )
         9        Fe     tau(   9) = (   0.0000000   0.3333333   0.3333333  )
        10        Fe     tau(  10) = (   0.1666667   0.5000000   0.5000000  )
        11        Fe     tau(  11) = (   0.0000000   0.3333333   0.6666667  )
        12        Fe     tau(  12) = (   0.1666667   0.5000000   0.8333333  )
        13        Fe     tau(  13) = (   0.0000000   0.6666667   0.0000000  )
        14        Fe     tau(  14) = (   0.1666667   0.8333333   0.1666667  )
        15        Fe     tau(  15) = (   0.0000000   0.6666667   0.3333333  )
        16        Fe     tau(  16) = (   0.1666667   0.8333333   0.5000000  )
        17        Fe     tau(  17) = (   0.0000000   0.6666667   0.6666667  )
        18        Fe     tau(  18) = (   0.1666667   0.8333333   0.8333333  )
        19        Fe     tau(  19) = (   0.3333333   0.0000000   0.0000000  )
        20        Fe     tau(  20) = (   0.5000000   0.1666667   0.1666667  )
        21        Fe     tau(  21) = (   0.3333333   0.0000000   0.3333333  )
        22        Fe     tau(  22) = (   0.5000000   0.1666667   0.5000000  )
        23        Fe     tau(  23) = (   0.3333333   0.0000000   0.6666667  )
        24        Fe     tau(  24) = (   0.5000000   0.1666667   0.8333333  )
        25        Fe     tau(  25) = (   0.3333333   0.3333333   0.0000000  )
        26        Fe     tau(  26) = (   0.5000000   0.5000000   0.1666667  )
        27        Fe     tau(  27) = (   0.3333333   0.3333333   0.3333333  )
        28        Fe     tau(  28) = (   0.5000000   0.5000000   0.5000000  )
        29        Fe     tau(  29) = (   0.3333333   0.3333333   0.6666667  )
        30        Fe     tau(  30) = (   0.5000000   0.5000000   0.8333333  )
        31        Fe     tau(  31) = (   0.3333333   0.6666667   0.0000000  )
        32        Fe     tau(  32) = (   0.5000000   0.8333333   0.1666667  )
        33        Fe     tau(  33) = (   0.3333333   0.6666667   0.3333333  )
        34        Fe     tau(  34) = (   0.5000000   0.8333333   0.5000000  )
        35        Fe     tau(  35) = (   0.3333333   0.6666667   0.6666667  )
        36        Fe     tau(  36) = (   0.5000000   0.8333333   0.8333333  )
        37        Fe     tau(  37) = (   0.6666667   0.0000000   0.0000000  )
        38        Fe     tau(  38) = (   0.8333333   0.1666667   0.1666667  )
        39        Fe     tau(  39) = (   0.6666667   0.0000000   0.3333333  )
        40        Fe     tau(  40) = (   0.8333333   0.1666667   0.5000000  )
        41        Fe     tau(  41) = (   0.6666667   0.0000000   0.6666667  )
        42        Fe     tau(  42) = (   0.8333333   0.1666667   0.8333333  )
        43        Fe     tau(  43) = (   0.6666667   0.3333333   0.0000000  )
        44        Fe     tau(  44) = (   0.8333333   0.5000000   0.1666667  )
        45        Fe     tau(  45) = (   0.6666667   0.3333333   0.3333333  )
        46        Fe     tau(  46) = (   0.8333333   0.5000000   0.5000000  )
        47        Fe     tau(  47) = (   0.6666667   0.3333333   0.6666667  )
        48        Fe     tau(  48) = (   0.8333333   0.5000000   0.8333333  )
        49        Fe     tau(  49) = (   0.6666667   0.6666667   0.0000000  )
        50        Fe     tau(  50) = (   0.8333333   0.8333333   0.1666667  )
        51        Fe     tau(  51) = (   0.6666667   0.6666667   0.3333333  )
        52        Fe     tau(  52) = (   0.8333333   0.8333333   0.5000000  )
        53        Fe     tau(  53) = (   0.6666667   0.6666667   0.6666667  )
        54        Fe     tau(  54) = (   0.8333333   0.8333333   0.8333333  )

   Crystallographic axes

     site n.     atom                  positions (cryst. coord.)
         1        Fe     tau(   1) = (  0.0000000  0.0000000  0.0000000  )
         2        Fe     tau(   2) = (  0.1666667  0.1666667  0.1666667  )
         3        Fe     tau(   3) = (  0.0000000  0.0000000  0.3333333  )
         4        Fe     tau(   4) = (  0.1666667  0.1666667  0.5000000  )
         5        Fe     tau(   5) = (  0.0000000  0.0000000  0.6666667  )
         6        Fe     tau(   6) = (  0.1666667  0.1666667  0.8333333  )
         7        Fe     tau(   7) = (  0.0000000  0.3333333  0.0000000  )
         8        Fe     tau(   8) = (  0.1666667  0.5000000  0.1666667  )
         9        Fe     tau(   9) = (  0.0000000  0.3333333  0.3333333  )
        10        Fe     tau(  10) = (  0.1666667  0.5000000  0.5000000  )
        11        Fe     tau(  11) = (  0.0000000  0.3333333  0.6666667  )
        12        Fe     tau(  12) = (  0.1666667  0.5000000  0.8333333  )
        13        Fe     tau(  13) = (  0.0000000  0.6666667  0.0000000  )
        14        Fe     tau(  14) = (  0.1666667  0.8333333  0.1666667  )
        15        Fe     tau(  15) = (  0.0000000  0.6666667  0.3333333  )
        16        Fe     tau(  16) = (  0.1666667  0.8333333  0.5000000  )
        17        Fe     tau(  17) = (  0.0000000  0.6666667  0.6666667  )
        18        Fe     tau(  18) = (  0.1666667  0.8333333  0.8333333  )
        19        Fe     tau(  19) = (  0.3333333  0.0000000  0.0000000  )
        20        Fe     tau(  20) = (  0.5000000  0.1666667  0.1666667  )
        21        Fe     tau(  21) = (  0.3333333  0.0000000  0.3333333  )
        22        Fe     tau(  22) = (  0.5000000  0.1666667  0.5000000  )
        23        Fe     tau(  23) = (  0.3333333  0.0000000  0.6666667  )
        24        Fe     tau(  24) = (  0.5000000  0.1666667  0.8333333  )
        25        Fe     tau(  25) = (  0.3333333  0.3333333  0.0000000  )
        26        Fe     tau(  26) = (  0.5000000  0.5000000  0.1666667  )
        27        Fe     tau(  27) = (  0.3333333  0.3333333  0.3333333  )
        28        Fe     tau(  28) = (  0.5000000  0.5000000  0.5000000  )
        29        Fe     tau(  29) = (  0.3333333  0.3333333  0.6666667  )
        30        Fe     tau(  30) = (  0.5000000  0.5000000  0.8333333  )
        31        Fe     tau(  31) = (  0.3333333  0.6666667  0.0000000  )
        32        Fe     tau(  32) = (  0.5000000  0.8333333  0.1666667  )
        33        Fe     tau(  33) = (  0.3333333  0.6666667  0.3333333  )
        34        Fe     tau(  34) = (  0.5000000  0.8333333  0.5000000  )
        35        Fe     tau(  35) = (  0.3333333  0.6666667  0.6666667  )
        36        Fe     tau(  36) = (  0.5000000  0.8333333  0.8333333  )
        37        Fe     tau(  37) = (  0.6666667  0.0000000  0.0000000  )
        38        Fe     tau(  38) = (  0.8333333  0.1666667  0.1666667  )
        39        Fe     tau(  39) = (  0.6666667  0.0000000  0.3333333  )
        40        Fe     tau(  40) = (  0.8333333  0.1666667  0.5000000  )
        41        Fe     tau(  41) = (  0.6666667  0.0000000  0.6666667  )
        42        Fe     tau(  42) = (  0.8333333  0.1666667  0.8333333  )
        43        Fe     tau(  43) = (  0.6666667  0.3333333  0.0000000  )
        44        Fe     tau(  44) = (  0.8333333  0.5000000  0.1666667  )
        45        Fe     tau(  45) = (  0.6666667  0.3333333  0.3333333  )
        46        Fe     tau(  46) = (  0.8333333  0.5000000  0.5000000  )
        47        Fe     tau(  47) = (  0.6666667  0.3333333  0.6666667  )
        48        Fe     tau(  48) = (  0.8333333  0.5000000  0.8333333  )
        49        Fe     tau(  49) = (  0.6666667  0.6666667  0.0000000  )
        50        Fe     tau(  50) = (  0.8333333  0.8333333  0.1666667  )
        51        Fe     tau(  51) = (  0.6666667  0.6666667  0.3333333  )
        52        Fe     tau(  52) = (  0.8333333  0.8333333  0.5000000  )
        53        Fe     tau(  53) = (  0.6666667  0.6666667  0.6666667  )
        54        Fe     tau(  54) = (  0.8333333  0.8333333  0.8333333  )

     number of k points=    20  Marzari-Vanderbilt smearing, width (Ry)=  0.0100
                       cart. coord. in units 2pi/alat
        k(    1) = (   0.0000000   0.0000000   0.0000000), wk =   0.0046296
        k(    2) = (   0.0000000   0.0000000   0.1666667), wk =   0.0277778
        k(    3) = (   0.0000000   0.0000000   0.3333333), wk =   0.0277778
        k(    4) = (   0.0000000   0.0000000  -0.5000000), wk =   0.0138889
        k(    5) = (   0.0000000   0.1666667   0.1666667), wk =   0.0555556
        k(    6) = (   0.0000000   0.1666667   0.3333333), wk =   0.1111111
        k(    7) = (   0.0000000   0.1666667  -0.5000000), wk =   0.0555556
        k(    8) = (   0.0000000   0.3333333   0.3333333), wk =   0.0555556
        k(    9) = (   0.0000000   0.3333333  -0.5000000), wk =   0.0555556
        k(   10) = (   0.0000000  -0.5000000  -0.5000000), wk =   0.0138889
        k(   11) = (   0.1666667   0.1666667   0.1666667), wk =   0.0370370
        k(   12) = (   0.1666667   0.1666667   0.3333333), wk =   0.1111111
        k(   13) = (   0.1666667   0.1666667  -0.5000000), wk =   0.0555556
        k(   14) = (   0.1666667   0.3333333   0.3333333), wk =   0.1111111
        k(   15) = (   0.1666667   0.3333333  -0.5000000), wk =   0.1111111
        k(   16) = (   0.1666667  -0.5000000  -0.5000000), wk =   0.0277778
        k(   17) = (   0.3333333   0.3333333   0.3333333), wk =   0.0370370
        k(   18) = (   0.3333333   0.3333333  -0.5000000), wk =   0.0555556
        k(   19) = (   0.3333333  -0.5000000  -0.5000000), wk =   0.0277778
        k(   20) = (  -0.5000000  -0.5000000  -0.5000000), wk =   0.0046296

                       cryst. coord.
        k(    1) = (   0.0000000   0.0000000   0.0000000), wk =   0.0046296
        k(    2) = (   0.0000000   0.0000000   0.1666667), wk =   0.0277778
        k(    3) = (   0.0000000   0.0000000   0.3333333), wk =   0.0277778
        k(    4) = (   0.0000000   0.0000000  -0.5000000), wk =   0.0138889
        k(    5) = (   0.0000000   0.1666667   0.1666667), wk =   0.0555556
        k(    6) = (   0.0000000   0.1666667   0.3333333), wk =   0.1111111
        k(    7) = (   0.0000000   0.1666667  -0.5000000), wk =   0.0555556
        k(    8) = (   0.0000000   0.3333333   0.3333333), wk =   0.0555556
        k(    9) = (   0.0000000   0.3333333  -0.5000000), wk =   0.0555556
        k(   10) = (   0.0000000  -0.5000000  -0.5000000), wk =   0.0138889
        k(   11) = (   0.1666667   0.1666667   0.1666667), wk =   0.0370370
        k(   12) = (   0.1666667   0.1666667   0.3333333), wk =   0.1111111
        k(   13) = (   0.1666667   0.1666667  -0.5000000), wk =   0.0555556
        k(   14) = (   0.1666667   0.3333333   0.3333333), wk =   0.1111111
        k(   15) = (   0.1666667   0.3333333  -0.5000000), wk =   0.1111111
        k(   16) = (   0.1666667  -0.5000000  -0.5000000), wk =   0.0277778
        k(   17) = (   0.3333333   0.3333333   0.3333333), wk =   0.0370370
        k(   18) = (   0.3333333   0.3333333  -0.5000000), wk =   0.0555556
        k(   19) = (   0.3333333  -0.5000000  -0.5000000), wk =   0.0277778
        k(   20) = (  -0.5000000  -0.5000000  -0.5000000), wk =   0.0046296

     Dense  grid:  2576031 G-vectors     FFT dimensions: ( 180, 180, 180)

     Smooth grid:   495639 G-vectors     FFT dimensions: ( 100, 100, 100)

     Dynamical RAM for                 wfc:      30.61 MB

     Dynamical RAM for     wfc (w. buffer):     183.67 MB

     Dynamical RAM for           str. fact:       2.46 MB

     Dynamical RAM for           local pot:       0.00 MB

     Dynamical RAM for          nlocal pot:      57.44 MB

     Dynamical RAM for                qrad:       2.64 MB

     Dynamical RAM for          rho,v,vnew:      32.54 MB

     Dynamical RAM for               rhoin:      10.85 MB

     Dynamical RAM for            rho*nmix:      78.61 MB

     Dynamical RAM for           G-vectors:       9.45 MB

     Dynamical RAM for          h,s,v(r/c):       3.07 MB

     Dynamical RAM for          <psi|beta>:       7.68 MB

     Dynamical RAM for                 psi:      61.22 MB

     Dynamical RAM for                hpsi:      61.22 MB

     Dynamical RAM for                spsi:      61.22 MB

     Dynamical RAM for      wfcinit/wfcrot:      70.50 MB

     Dynamical RAM for           addusdens:      78.31 MB

     Dynamical RAM for          addusforce:     109.13 MB

     Dynamical RAM for         addusstress:      64.33 MB

     Estimated static dynamical RAM per process >     321.75 MB

     Estimated max dynamical RAM per process >     594.80 MB

     Estimated total dynamical RAM >      65.75 GB
     Generating pointlists ...
     new r_m :   0.1191 (alat units)  1.9362 (a.u.) for type    1

     Initial potential from superposition of free atoms

     starting charge     863.9764, renormalised to     864.0000
     Starting wfcs are  540 randomized atomic wfcs
     Checking if some PAW data can be deallocated... 

     total cpu time spent up to now is       33.1 secs

     per-process dynamical memory:   513.4 Mb

     Self-consistent Calculation

     iteration #  1     ecut=    90.00 Ry     beta= 0.20
     Davidson diagonalization with overlap

---- Real-time Memory Report at c_bands before calling an iterative solver
          1106 MiB given to the printing process from OS
           513 MiB allocation reported by mallinfo(arena+hblkhd)
        412576 MiB available memory on the node where the printing process lives
------------------
     ethr =  1.00E-02,  avg # of iterations =  3.5

     total cpu time spent up to now is      127.5 secs

     total energy              =  -17771.84144513 Ry
     estimated scf accuracy    <      14.98715638 Ry

     total magnetization       =   168.59 Bohr mag/cell
     absolute magnetization    =   170.97 Bohr mag/cell

     iteration #  2     ecut=    90.00 Ry     beta= 0.20
     Davidson diagonalization with overlap

---- Real-time Memory Report at c_bands before calling an iterative solver
          1274 MiB given to the printing process from OS
           552 MiB allocation reported by mallinfo(arena+hblkhd)
        409504 MiB available memory on the node where the printing process lives
------------------
     ethr =  1.73E-03,  avg # of iterations =  3.8

     negative rho (up, down):  0.000E+00 1.200E-02

     total cpu time spent up to now is      207.9 secs

     total energy              =  -17778.73374827 Ry
     estimated scf accuracy    <      10.22088585 Ry

     total magnetization       =   164.81 Bohr mag/cell
     absolute magnetization    =   168.59 Bohr mag/cell

     iteration #  3     ecut=    90.00 Ry     beta= 0.20
     Davidson diagonalization with overlap

---- Real-time Memory Report at c_bands before calling an iterative solver
          1292 MiB given to the printing process from OS
           555 MiB allocation reported by mallinfo(arena+hblkhd)
        409476 MiB available memory on the node where the printing process lives
------------------
     ethr =  1.18E-03,  avg # of iterations =  2.4

     negative rho (up, down):  0.000E+00 2.045E-02

     total cpu time spent up to now is      287.4 secs

     total energy              =  -17779.36494498 Ry
     estimated scf accuracy    <      18.71012098 Ry

     total magnetization       =   143.37 Bohr mag/cell
     absolute magnetization    =   151.14 Bohr mag/cell

     iteration #  4     ecut=    90.00 Ry     beta= 0.20
     Davidson diagonalization with overlap

---- Real-time Memory Report at c_bands before calling an iterative solver
          1294 MiB given to the printing process from OS
           557 MiB allocation reported by mallinfo(arena+hblkhd)
        409453 MiB available memory on the node where the printing process lives
------------------
     ethr =  1.18E-03,  avg # of iterations =  1.7

     negative rho (up, down):  0.000E+00 2.267E-02

     total cpu time spent up to now is      361.3 secs

     total energy              =  -17780.31162332 Ry
     estimated scf accuracy    <       5.17365356 Ry

     total magnetization       =   138.86 Bohr mag/cell
     absolute magnetization    =   147.42 Bohr mag/cell

     iteration #  5     ecut=    90.00 Ry     beta= 0.20
     Davidson diagonalization with overlap

---- Real-time Memory Report at c_bands before calling an iterative solver
          1296 MiB given to the printing process from OS
           559 MiB allocation reported by mallinfo(arena+hblkhd)
        409408 MiB available memory on the node where the printing process lives
------------------
     ethr =  5.99E-04,  avg # of iterations =  1.5

     negative rho (up, down):  0.000E+00 2.188E-02

     total cpu time spent up to now is      432.2 secs

     total energy              =  -17780.46919573 Ry
     estimated scf accuracy    <       0.78509753 Ry

     total magnetization       =   136.52 Bohr mag/cell
     absolute magnetization    =   145.10 Bohr mag/cell

     iteration #  6     ecut=    90.00 Ry     beta= 0.20
     Davidson diagonalization with overlap

---- Real-time Memory Report at c_bands before calling an iterative solver
          1299 MiB given to the printing process from OS
           561 MiB allocation reported by mallinfo(arena+hblkhd)
        409362 MiB available memory on the node where the printing process lives
------------------
     ethr =  9.09E-05,  avg # of iterations =  3.9

     negative rho (up, down):  0.000E+00 1.570E-02

     total cpu time spent up to now is      510.9 secs

     total energy              =  -17780.37546764 Ry
     estimated scf accuracy    <       0.56407437 Ry

     total magnetization       =   135.96 Bohr mag/cell
     absolute magnetization    =   144.33 Bohr mag/cell

     iteration #  7     ecut=    90.00 Ry     beta= 0.20
     Davidson diagonalization with overlap

---- Real-time Memory Report at c_bands before calling an iterative solver
          1301 MiB given to the printing process from OS
           564 MiB allocation reported by mallinfo(arena+hblkhd)
        409310 MiB available memory on the node where the printing process lives
------------------
     ethr =  6.53E-05,  avg # of iterations =  4.2

     negative rho (up, down):  0.000E+00 1.282E-02

     total cpu time spent up to now is      597.2 secs

     total energy              =  -17780.44648721 Ry
     estimated scf accuracy    <       0.28891577 Ry

     total magnetization       =   129.84 Bohr mag/cell
     absolute magnetization    =   138.38 Bohr mag/cell

     iteration #  8     ecut=    90.00 Ry     beta= 0.20
     Davidson diagonalization with overlap

---- Real-time Memory Report at c_bands before calling an iterative solver
          1303 MiB given to the printing process from OS
           566 MiB allocation reported by mallinfo(arena+hblkhd)
        409253 MiB available memory on the node where the printing process lives
------------------
     ethr =  3.34E-05,  avg # of iterations =  4.2

     negative rho (up, down):  0.000E+00 1.067E-02

     total cpu time spent up to now is      680.4 secs

     total energy              =  -17780.49605033 Ry
     estimated scf accuracy    <       0.14507008 Ry

     total magnetization       =   125.92 Bohr mag/cell
     absolute magnetization    =   134.79 Bohr mag/cell

     iteration #  9     ecut=    90.00 Ry     beta= 0.20
     Davidson diagonalization with overlap

---- Real-time Memory Report at c_bands before calling an iterative solver
          1305 MiB given to the printing process from OS
           568 MiB allocation reported by mallinfo(arena+hblkhd)
        409236 MiB available memory on the node where the printing process lives
------------------
     ethr =  1.68E-05,  avg # of iterations =  2.9

     negative rho (up, down):  0.000E+00 7.878E-03

     total cpu time spent up to now is      759.6 secs

     total energy              =  -17780.49659988 Ry
     estimated scf accuracy    <       0.17977151 Ry

     total magnetization       =   122.90 Bohr mag/cell
     absolute magnetization    =   131.80 Bohr mag/cell

     iteration # 10     ecut=    90.00 Ry     beta= 0.20
     Davidson diagonalization with overlap

---- Real-time Memory Report at c_bands before calling an iterative solver
          1308 MiB given to the printing process from OS
           570 MiB allocation reported by mallinfo(arena+hblkhd)
        409186 MiB available memory on the node where the printing process lives
------------------
     ethr =  1.68E-05,  avg # of iterations =  1.8

     negative rho (up, down):  0.000E+00 3.700E-03

     total cpu time spent up to now is      834.5 secs

     total energy              =  -17780.51679124 Ry
     estimated scf accuracy    <       0.09592645 Ry

     total magnetization       =   121.18 Bohr mag/cell
     absolute magnetization    =   130.01 Bohr mag/cell

     iteration # 11     ecut=    90.00 Ry     beta= 0.20
     Davidson diagonalization with overlap

---- Real-time Memory Report at c_bands before calling an iterative solver
          1310 MiB given to the printing process from OS
           570 MiB allocation reported by mallinfo(arena+hblkhd)
        409187 MiB available memory on the node where the printing process lives
------------------
     ethr =  1.11E-05,  avg # of iterations =  4.2

     negative rho (up, down):  0.000E+00 3.498E-03

     total cpu time spent up to now is      925.9 secs

     total energy              =  -17780.53694856 Ry
     estimated scf accuracy    <       0.02170159 Ry

     total magnetization       =   121.04 Bohr mag/cell
     absolute magnetization    =   128.84 Bohr mag/cell

     iteration # 12     ecut=    90.00 Ry     beta= 0.20
     Davidson diagonalization with overlap

---- Real-time Memory Report at c_bands before calling an iterative solver
          1310 MiB given to the printing process from OS
           570 MiB allocation reported by mallinfo(arena+hblkhd)
        409186 MiB available memory on the node where the printing process lives
------------------
     ethr =  2.51E-06,  avg # of iterations =  5.3

     negative rho (up, down):  0.000E+00 3.149E-03

     total cpu time spent up to now is     1015.1 secs

     total energy              =  -17780.54171831 Ry
     estimated scf accuracy    <       0.02961781 Ry

     total magnetization       =   120.54 Bohr mag/cell
     absolute magnetization    =   128.26 Bohr mag/cell

     iteration # 13     ecut=    90.00 Ry     beta= 0.20
     Davidson diagonalization with overlap

---- Real-time Memory Report at c_bands before calling an iterative solver
          1310 MiB given to the printing process from OS
           570 MiB allocation reported by mallinfo(arena+hblkhd)
        409167 MiB available memory on the node where the printing process lives
------------------
     ethr =  2.51E-06,  avg # of iterations =  3.2

     negative rho (up, down):  0.000E+00 3.021E-03

     total cpu time spent up to now is     1099.7 secs

     total energy              =  -17780.54602851 Ry
     estimated scf accuracy    <       0.00311561 Ry

     total magnetization       =   120.64 Bohr mag/cell
     absolute magnetization    =   128.16 Bohr mag/cell

     iteration # 14     ecut=    90.00 Ry     beta= 0.20
     Davidson diagonalization with overlap

---- Real-time Memory Report at c_bands before calling an iterative solver
          1310 MiB given to the printing process from OS
           570 MiB allocation reported by mallinfo(arena+hblkhd)
        409167 MiB available memory on the node where the printing process lives
------------------
     ethr =  3.61E-07,  avg # of iterations =  4.1

     negative rho (up, down):  0.000E+00 2.986E-03

     total cpu time spent up to now is     1188.2 secs

     total energy              =  -17780.54659322 Ry
     estimated scf accuracy    <       0.00592634 Ry

     total magnetization       =   120.51 Bohr mag/cell
     absolute magnetization    =   127.89 Bohr mag/cell

     iteration # 15     ecut=    90.00 Ry     beta= 0.20
     Davidson diagonalization with overlap

---- Real-time Memory Report at c_bands before calling an iterative solver
          1310 MiB given to the printing process from OS
           570 MiB allocation reported by mallinfo(arena+hblkhd)
        409171 MiB available memory on the node where the printing process lives
------------------
     ethr =  3.61E-07,  avg # of iterations =  1.9

     negative rho (up, down):  0.000E+00 2.867E-03

     total cpu time spent up to now is     1263.6 secs

     total energy              =  -17780.54766292 Ry
     estimated scf accuracy    <       0.01180851 Ry

     total magnetization       =   120.48 Bohr mag/cell
     absolute magnetization    =   127.82 Bohr mag/cell

     iteration # 16     ecut=    90.00 Ry     beta= 0.20
     Davidson diagonalization with overlap

---- Real-time Memory Report at c_bands before calling an iterative solver
          1310 MiB given to the printing process from OS
           570 MiB allocation reported by mallinfo(arena+hblkhd)
        409165 MiB available memory on the node where the printing process lives
------------------
     ethr =  3.61E-07,  avg # of iterations =  1.9

     negative rho (up, down):  0.000E+00 2.836E-03

     total cpu time spent up to now is     1339.4 secs

     total energy              =  -17780.54829584 Ry
     estimated scf accuracy    <       0.00301854 Ry

     total magnetization       =   120.31 Bohr mag/cell
     absolute magnetization    =   127.59 Bohr mag/cell

     iteration # 17     ecut=    90.00 Ry     beta= 0.20
     Davidson diagonalization with overlap

---- Real-time Memory Report at c_bands before calling an iterative solver
          1310 MiB given to the printing process from OS
           570 MiB allocation reported by mallinfo(arena+hblkhd)
        409171 MiB available memory on the node where the printing process lives
------------------
     ethr =  3.49E-07,  avg # of iterations =  2.3

     negative rho (up, down):  0.000E+00 2.672E-03

     total cpu time spent up to now is     1418.6 secs

     total energy              =  -17780.54890219 Ry
     estimated scf accuracy    <       0.00633475 Ry

     total magnetization       =   120.41 Bohr mag/cell
     absolute magnetization    =   127.58 Bohr mag/cell

     iteration # 18     ecut=    90.00 Ry     beta= 0.20
     Davidson diagonalization with overlap

---- Real-time Memory Report at c_bands before calling an iterative solver
          1310 MiB given to the printing process from OS
           570 MiB allocation reported by mallinfo(arena+hblkhd)
        409160 MiB available memory on the node where the printing process lives
------------------
     ethr =  3.49E-07,  avg # of iterations =  3.5

     negative rho (up, down):  0.000E+00 2.641E-03

     total cpu time spent up to now is     1511.0 secs

     total energy              =  -17780.54985456 Ry
     estimated scf accuracy    <       0.00136082 Ry

     total magnetization       =   119.96 Bohr mag/cell
     absolute magnetization    =   126.91 Bohr mag/cell

     iteration # 19     ecut=    90.00 Ry     beta= 0.20
     Davidson diagonalization with overlap

---- Real-time Memory Report at c_bands before calling an iterative solver
          1310 MiB given to the printing process from OS
           570 MiB allocation reported by mallinfo(arena+hblkhd)
        409169 MiB available memory on the node where the printing process lives
------------------
     ethr =  1.58E-07,  avg # of iterations =  2.6

     negative rho (up, down):  0.000E+00 2.598E-03

     total cpu time spent up to now is     1588.9 secs

     total energy              =  -17780.54989004 Ry
     estimated scf accuracy    <       0.00054163 Ry

     total magnetization       =   119.93 Bohr mag/cell
     absolute magnetization    =   126.85 Bohr mag/cell

     iteration # 20     ecut=    90.00 Ry     beta= 0.20
     Davidson diagonalization with overlap

---- Real-time Memory Report at c_bands before calling an iterative solver
          1310 MiB given to the printing process from OS
           570 MiB allocation reported by mallinfo(arena+hblkhd)
        409146 MiB available memory on the node where the printing process lives
------------------
     ethr =  6.27E-08,  avg # of iterations =  2.7

     negative rho (up, down):  0.000E+00 2.590E-03

     total cpu time spent up to now is     1669.3 secs

     total energy              =  -17780.54986741 Ry
     estimated scf accuracy    <       0.00037040 Ry

     total magnetization       =   119.92 Bohr mag/cell
     absolute magnetization    =   126.81 Bohr mag/cell

     iteration # 21     ecut=    90.00 Ry     beta= 0.20
     Davidson diagonalization with overlap

---- Real-time Memory Report at c_bands before calling an iterative solver
          1310 MiB given to the printing process from OS
           570 MiB allocation reported by mallinfo(arena+hblkhd)
        409162 MiB available memory on the node where the printing process lives
------------------
     ethr =  4.29E-08,  avg # of iterations =  3.4

     negative rho (up, down):  0.000E+00 2.602E-03

     total cpu time spent up to now is     1752.3 secs

     total energy              =  -17780.54989897 Ry
     estimated scf accuracy    <       0.00009772 Ry

     total magnetization       =   119.89 Bohr mag/cell
     absolute magnetization    =   126.76 Bohr mag/cell

     iteration # 22     ecut=    90.00 Ry     beta= 0.20
     Davidson diagonalization with overlap

---- Real-time Memory Report at c_bands before calling an iterative solver
          1310 MiB given to the printing process from OS
           570 MiB allocation reported by mallinfo(arena+hblkhd)
        409122 MiB available memory on the node where the printing process lives
------------------
     ethr =  1.13E-08,  avg # of iterations =  4.5

     negative rho (up, down):  0.000E+00 2.613E-03

     total cpu time spent up to now is     1843.4 secs

     total energy              =  -17780.54991061 Ry
     estimated scf accuracy    <       0.00015113 Ry

     total magnetization       =   119.87 Bohr mag/cell
     absolute magnetization    =   126.73 Bohr mag/cell

     iteration # 23     ecut=    90.00 Ry     beta= 0.20
     Davidson diagonalization with overlap

---- Real-time Memory Report at c_bands before calling an iterative solver
          1310 MiB given to the printing process from OS
           570 MiB allocation reported by mallinfo(arena+hblkhd)
        409120 MiB available memory on the node where the printing process lives
------------------
     ethr =  1.13E-08,  avg # of iterations =  1.7

     negative rho (up, down):  0.000E+00 2.653E-03

     total cpu time spent up to now is     1917.7 secs

     total energy              =  -17780.54991896 Ry
     estimated scf accuracy    <       0.00009606 Ry

     total magnetization       =   119.86 Bohr mag/cell
     absolute magnetization    =   126.72 Bohr mag/cell

     iteration # 24     ecut=    90.00 Ry     beta= 0.20
     Davidson diagonalization with overlap

---- Real-time Memory Report at c_bands before calling an iterative solver
          1310 MiB given to the printing process from OS
           570 MiB allocation reported by mallinfo(arena+hblkhd)
        409115 MiB available memory on the node where the printing process lives
------------------
     ethr =  1.11E-08,  avg # of iterations =  1.7

     negative rho (up, down):  0.000E+00 2.654E-03

     total cpu time spent up to now is     1993.3 secs

     total energy              =  -17780.54992639 Ry
     estimated scf accuracy    <       0.00003499 Ry

     total magnetization       =   119.86 Bohr mag/cell
     absolute magnetization    =   126.73 Bohr mag/cell

     iteration # 25     ecut=    90.00 Ry     beta= 0.20
     Davidson diagonalization with overlap

---- Real-time Memory Report at c_bands before calling an iterative solver
          1310 MiB given to the printing process from OS
           570 MiB allocation reported by mallinfo(arena+hblkhd)
        409122 MiB available memory on the node where the printing process lives
------------------
     ethr =  4.05E-09,  avg # of iterations =  2.0

     negative rho (up, down):  0.000E+00 2.657E-03

     total cpu time spent up to now is     2070.1 secs

     total energy              =  -17780.54992865 Ry
     estimated scf accuracy    <       0.00001669 Ry

     total magnetization       =   119.85 Bohr mag/cell
     absolute magnetization    =   126.72 Bohr mag/cell

     iteration # 26     ecut=    90.00 Ry     beta= 0.20
     Davidson diagonalization with overlap

---- Real-time Memory Report at c_bands before calling an iterative solver
          1310 MiB given to the printing process from OS
           570 MiB allocation reported by mallinfo(arena+hblkhd)
        409112 MiB available memory on the node where the printing process lives
------------------
     ethr =  1.93E-09,  avg # of iterations =  1.4

     negative rho (up, down):  0.000E+00 2.658E-03

     total cpu time spent up to now is     2145.3 secs

     total energy              =  -17780.54993201 Ry
     estimated scf accuracy    <       0.00000542 Ry

     total magnetization       =   119.85 Bohr mag/cell
     absolute magnetization    =   126.71 Bohr mag/cell

     iteration # 27     ecut=    90.00 Ry     beta= 0.20
     Davidson diagonalization with overlap

---- Real-time Memory Report at c_bands before calling an iterative solver
          1310 MiB given to the printing process from OS
           570 MiB allocation reported by mallinfo(arena+hblkhd)
        409126 MiB available memory on the node where the printing process lives
------------------
     ethr =  6.27E-10,  avg # of iterations =  3.1

     negative rho (up, down):  0.000E+00 2.657E-03

     total cpu time spent up to now is     2230.8 secs

     total energy              =  -17780.54993428 Ry
     estimated scf accuracy    <       0.00000193 Ry

     total magnetization       =   119.84 Bohr mag/cell
     absolute magnetization    =   126.69 Bohr mag/cell

     iteration # 28     ecut=    90.00 Ry     beta= 0.20
     Davidson diagonalization with overlap

---- Real-time Memory Report at c_bands before calling an iterative solver
          1310 MiB given to the printing process from OS
           570 MiB allocation reported by mallinfo(arena+hblkhd)
        409095 MiB available memory on the node where the printing process lives
------------------
     ethr =  2.24E-10,  avg # of iterations =  4.6

     negative rho (up, down):  0.000E+00 2.657E-03

     total cpu time spent up to now is     2320.2 secs

     total energy              =  -17780.54993593 Ry
     estimated scf accuracy    <       0.00000519 Ry

     total magnetization       =   119.84 Bohr mag/cell
     absolute magnetization    =   126.68 Bohr mag/cell

     iteration # 29     ecut=    90.00 Ry     beta= 0.20
     Davidson diagonalization with overlap

---- Real-time Memory Report at c_bands before calling an iterative solver
          1310 MiB given to the printing process from OS
           570 MiB allocation reported by mallinfo(arena+hblkhd)
        409096 MiB available memory on the node where the printing process lives
------------------
     ethr =  2.24E-10,  avg # of iterations =  4.5

     negative rho (up, down):  0.000E+00 2.655E-03

     total cpu time spent up to now is     2411.1 secs

     total energy              =  -17780.54993550 Ry
     estimated scf accuracy    <       0.00000171 Ry

     total magnetization       =   119.83 Bohr mag/cell
     absolute magnetization    =   126.67 Bohr mag/cell

     iteration # 30     ecut=    90.00 Ry     beta= 0.20
     Davidson diagonalization with overlap

---- Real-time Memory Report at c_bands before calling an iterative solver
          1310 MiB given to the printing process from OS
           570 MiB allocation reported by mallinfo(arena+hblkhd)
        409103 MiB available memory on the node where the printing process lives
------------------
     ethr =  1.98E-10,  avg # of iterations =  2.6

     negative rho (up, down):  0.000E+00 2.657E-03

     total cpu time spent up to now is     2491.1 secs

     total energy              =  -17780.54993641 Ry
     estimated scf accuracy    <       0.00000603 Ry

     total magnetization       =   119.83 Bohr mag/cell
     absolute magnetization    =   126.68 Bohr mag/cell

     iteration # 31     ecut=    90.00 Ry     beta= 0.20
     Davidson diagonalization with overlap

---- Real-time Memory Report at c_bands before calling an iterative solver
          1310 MiB given to the printing process from OS
           570 MiB allocation reported by mallinfo(arena+hblkhd)
        409088 MiB available memory on the node where the printing process lives
------------------
     ethr =  1.98E-10,  avg # of iterations =  3.6

     negative rho (up, down):  0.000E+00 2.656E-03

     total cpu time spent up to now is     2577.7 secs

     total energy              =  -17780.54993714 Ry
     estimated scf accuracy    <       0.00000142 Ry

     total magnetization       =   119.83 Bohr mag/cell
     absolute magnetization    =   126.66 Bohr mag/cell

     iteration # 32     ecut=    90.00 Ry     beta= 0.20
     Davidson diagonalization with overlap

---- Real-time Memory Report at c_bands before calling an iterative solver
          1310 MiB given to the printing process from OS
           570 MiB allocation reported by mallinfo(arena+hblkhd)
        409099 MiB available memory on the node where the printing process lives
------------------
     ethr =  1.65E-10,  avg # of iterations =  3.0

     negative rho (up, down):  0.000E+00 2.655E-03

     total cpu time spent up to now is     2659.4 secs

     total energy              =  -17780.54993733 Ry
     estimated scf accuracy    <       0.00000023 Ry

     total magnetization       =   119.83 Bohr mag/cell
     absolute magnetization    =   126.66 Bohr mag/cell

     iteration # 33     ecut=    90.00 Ry     beta= 0.20
     Davidson diagonalization with overlap

---- Real-time Memory Report at c_bands before calling an iterative solver
          1310 MiB given to the printing process from OS
           570 MiB allocation reported by mallinfo(arena+hblkhd)
        409099 MiB available memory on the node where the printing process lives
------------------
     ethr =  2.71E-11,  avg # of iterations =  4.7

     negative rho (up, down):  0.000E+00 2.654E-03

     total cpu time spent up to now is     2744.9 secs

     total energy              =  -17780.54993737 Ry
     estimated scf accuracy    <       0.00000018 Ry

     total magnetization       =   119.82 Bohr mag/cell
     absolute magnetization    =   126.65 Bohr mag/cell

     iteration # 34     ecut=    90.00 Ry     beta= 0.20
     Davidson diagonalization with overlap

---- Real-time Memory Report at c_bands before calling an iterative solver
          1310 MiB given to the printing process from OS
           570 MiB allocation reported by mallinfo(arena+hblkhd)
        409087 MiB available memory on the node where the printing process lives
------------------
     ethr =  2.11E-11,  avg # of iterations =  1.8

     negative rho (up, down):  0.000E+00 2.654E-03

     total cpu time spent up to now is     2819.5 secs

     total energy              =  -17780.54993739 Ry
     estimated scf accuracy    <       0.00000018 Ry

     total magnetization       =   119.82 Bohr mag/cell
     absolute magnetization    =   126.65 Bohr mag/cell

     iteration # 35     ecut=    90.00 Ry     beta= 0.20
     Davidson diagonalization with overlap

---- Real-time Memory Report at c_bands before calling an iterative solver
          1310 MiB given to the printing process from OS
           570 MiB allocation reported by mallinfo(arena+hblkhd)
        409079 MiB available memory on the node where the printing process lives
------------------
     ethr =  2.11E-11,  avg # of iterations =  2.3

     negative rho (up, down):  0.000E+00 2.654E-03

     total cpu time spent up to now is     2896.9 secs

     total energy              =  -17780.54993738 Ry
     estimated scf accuracy    <       0.00000048 Ry

     total magnetization       =   119.82 Bohr mag/cell
     absolute magnetization    =   126.65 Bohr mag/cell

     iteration # 36     ecut=    90.00 Ry     beta= 0.20
     Davidson diagonalization with overlap

---- Real-time Memory Report at c_bands before calling an iterative solver
          1310 MiB given to the printing process from OS
           570 MiB allocation reported by mallinfo(arena+hblkhd)
        409098 MiB available memory on the node where the printing process lives
------------------
     ethr =  2.11E-11,  avg # of iterations =  1.1

     negative rho (up, down):  0.000E+00 2.653E-03

     total cpu time spent up to now is     2967.6 secs

     total energy              =  -17780.54993741 Ry
     estimated scf accuracy    <       0.00000010 Ry

     total magnetization       =   119.82 Bohr mag/cell
     absolute magnetization    =   126.65 Bohr mag/cell

     iteration # 37     ecut=    90.00 Ry     beta= 0.20
     Davidson diagonalization with overlap

---- Real-time Memory Report at c_bands before calling an iterative solver
          1310 MiB given to the printing process from OS
           570 MiB allocation reported by mallinfo(arena+hblkhd)
        409079 MiB available memory on the node where the printing process lives
------------------
     ethr =  1.12E-11,  avg # of iterations =  3.7

     negative rho (up, down):  0.000E+00 2.652E-03

     total cpu time spent up to now is     3052.3 secs

     total energy              =  -17780.54993742 Ry
     estimated scf accuracy    <       0.00000017 Ry

     total magnetization       =   119.82 Bohr mag/cell
     absolute magnetization    =   126.65 Bohr mag/cell

     iteration # 38     ecut=    90.00 Ry     beta= 0.20
     Davidson diagonalization with overlap

---- Real-time Memory Report at c_bands before calling an iterative solver
          1310 MiB given to the printing process from OS
           570 MiB allocation reported by mallinfo(arena+hblkhd)
        409077 MiB available memory on the node where the printing process lives
------------------
     ethr =  1.12E-11,  avg # of iterations =  2.9

     negative rho (up, down):  0.000E+00 2.652E-03

     total cpu time spent up to now is     3132.5 secs

     total energy              =  -17780.54993744 Ry
     estimated scf accuracy    <       0.00000003 Ry

     total magnetization       =   119.82 Bohr mag/cell
     absolute magnetization    =   126.65 Bohr mag/cell

     iteration # 39     ecut=    90.00 Ry     beta= 0.20
     Davidson diagonalization with overlap

---- Real-time Memory Report at c_bands before calling an iterative solver
          1310 MiB given to the printing process from OS
           570 MiB allocation reported by mallinfo(arena+hblkhd)
        409083 MiB available memory on the node where the printing process lives
------------------
     ethr =  2.91E-12,  avg # of iterations =  3.5

     negative rho (up, down):  0.000E+00 2.651E-03

     total cpu time spent up to now is     3212.1 secs

     total energy              =  -17780.54993745 Ry
     estimated scf accuracy    <       0.00000002 Ry

     total magnetization       =   119.82 Bohr mag/cell
     absolute magnetization    =   126.65 Bohr mag/cell

     iteration # 40     ecut=    90.00 Ry     beta= 0.20
     Davidson diagonalization with overlap

---- Real-time Memory Report at c_bands before calling an iterative solver
          1310 MiB given to the printing process from OS
           570 MiB allocation reported by mallinfo(arena+hblkhd)
        409068 MiB available memory on the node where the printing process lives
------------------
     ethr =  2.88E-12,  avg # of iterations =  1.3

     negative rho (up, down):  0.000E+00 2.651E-03

     Magnetic moment per site  (integrated on atomic sphere of radius R)
     atom   1 (R=0.119)  charge= 14.4209  magn=  2.2728
     atom   2 (R=0.119)  charge= 14.4209  magn=  2.2727
     atom   3 (R=0.119)  charge= 14.4209  magn=  2.2728
     atom   4 (R=0.119)  charge= 14.4209  magn=  2.2727
     atom   5 (R=0.119)  charge= 14.4209  magn=  2.2728
     atom   6 (R=0.119)  charge= 14.4209  magn=  2.2727
     atom   7 (R=0.119)  charge= 14.4209  magn=  2.2728
     atom   8 (R=0.119)  charge= 14.4209  magn=  2.2727
     atom   9 (R=0.119)  charge= 14.4209  magn=  2.2727
     atom  10 (R=0.119)  charge= 14.4209  magn=  2.2727
     atom  11 (R=0.119)  charge= 14.4209  magn=  2.2727
     atom  12 (R=0.119)  charge= 14.4209  magn=  2.2727
     atom  13 (R=0.119)  charge= 14.4209  magn=  2.2728
     atom  14 (R=0.119)  charge= 14.4209  magn=  2.2727
     atom  15 (R=0.119)  charge= 14.4209  magn=  2.2727
     atom  16 (R=0.119)  charge= 14.4209  magn=  2.2727
     atom  17 (R=0.119)  charge= 14.4209  magn=  2.2727
     atom  18 (R=0.119)  charge= 14.4209  magn=  2.2727
     atom  19 (R=0.119)  charge= 14.4209  magn=  2.2728
     atom  20 (R=0.119)  charge= 14.4209  magn=  2.2727
     atom  21 (R=0.119)  charge= 14.4209  magn=  2.2727
     atom  22 (R=0.119)  charge= 14.4209  magn=  2.2727
     atom  23 (R=0.119)  charge= 14.4209  magn=  2.2727
     atom  24 (R=0.119)  charge= 14.4209  magn=  2.2727
     atom  25 (R=0.119)  charge= 14.4209  magn=  2.2727
     atom  26 (R=0.119)  charge= 14.4209  magn=  2.2727
     atom  27 (R=0.119)  charge= 14.4209  magn=  2.2726
     atom  28 (R=0.119)  charge= 14.4209  magn=  2.2725
     atom  29 (R=0.119)  charge= 14.4209  magn=  2.2726
     atom  30 (R=0.119)  charge= 14.4209  magn=  2.2727
     atom  31 (R=0.119)  charge= 14.4209  magn=  2.2727
     atom  32 (R=0.119)  charge= 14.4209  magn=  2.2727
     atom  33 (R=0.119)  charge= 14.4209  magn=  2.2726
     atom  34 (R=0.119)  charge= 14.4209  magn=  2.2727
     atom  35 (R=0.119)  charge= 14.4209  magn=  2.2726
     atom  36 (R=0.119)  charge= 14.4209  magn=  2.2727
     atom  37 (R=0.119)  charge= 14.4209  magn=  2.2728
     atom  38 (R=0.119)  charge= 14.4209  magn=  2.2727
     atom  39 (R=0.119)  charge= 14.4209  magn=  2.2727
     atom  40 (R=0.119)  charge= 14.4209  magn=  2.2727
     atom  41 (R=0.119)  charge= 14.4209  magn=  2.2727
     atom  42 (R=0.119)  charge= 14.4209  magn=  2.2727
     atom  43 (R=0.119)  charge= 14.4209  magn=  2.2727
     atom  44 (R=0.119)  charge= 14.4209  magn=  2.2727
     atom  45 (R=0.119)  charge= 14.4209  magn=  2.2726
     atom  46 (R=0.119)  charge= 14.4209  magn=  2.2727
     atom  47 (R=0.119)  charge= 14.4209  magn=  2.2726
     atom  48 (R=0.119)  charge= 14.4209  magn=  2.2727
     atom  49 (R=0.119)  charge= 14.4209  magn=  2.2727
     atom  50 (R=0.119)  charge= 14.4209  magn=  2.2727
     atom  51 (R=0.119)  charge= 14.4209  magn=  2.2726
     atom  52 (R=0.119)  charge= 14.4209  magn=  2.2727
     atom  53 (R=0.119)  charge= 14.4209  magn=  2.2726
     atom  54 (R=0.119)  charge= 14.4209  magn=  2.2727

     total cpu time spent up to now is     3288.5 secs

     End of self-consistent calculation

 ------ SPIN UP ------------


          k = 0.0000 0.0000 0.0000 ( 62093 PWs)   bands (ev):

   -70.6009 -70.5685 -70.5685 -70.5685 -70.5685 -70.5685 -70.5685 -70.5506
   -70.5506 -70.5506 -70.5506 -70.5506 -70.5506 -70.5506 -70.5506 -70.5506
   -70.5506 -70.5506 -70.5506 -70.5400 -70.5400 -70.5400 -70.5400 -70.5400
   -70.5400 -70.5400 -70.5399 -70.5254 -70.5254 -70.5254 -70.5254 -70.5254
   -70.5254 -70.5254 -70.5253 -70.5214 -70.5214 -70.5214 -70.5214 -70.5214
   -70.5213 -70.5213 -70.5213 -70.5213 -70.5213 -70.5213 -70.5213 -70.5100
   -70.5100 -70.5100 -70.5100 -70.5100 -70.5100 -70.4840 -36.7624 -36.7624
   -36.7624 -36.7624 -36.7624 -36.7624 -36.7624 -36.7624 -36.7624 -36.7624
   -36.7624 -36.7624 -36.7106 -36.7106 -36.7106 -36.7106 -36.7106 -36.7106
   -36.7106 -36.7106 -36.6980 -36.6980 -36.6980 -36.6980 -36.6980 -36.6980
   -36.6980 -36.6980 -36.6980 -36.6980 -36.6980 -36.6980 -36.6873 -36.6873
   -36.6873 -36.6752 -36.6752 -36.6752 -36.6752 -36.6752 -36.6752 -36.6752
   -36.6752 -36.6752 -36.6752 -36.6752 -36.6752 -36.6752 -36.6751 -36.6751
   -36.6751 -36.6637 -36.6637 -36.6637 -36.6637 -36.6637 -36.6637 -36.6190
   -36.6190 -36.6190 -36.6190 -36.6190 -36.6190 -36.6190 -36.6190 -36.6190
   -36.6190 -36.6190 -36.6190 -36.5829 -36.5829 -36.5829 -36.5828 -36.5828
   -36.5828 -36.5828 -36.5828 -36.5828 -36.5828 -36.5828 -36.5828 -36.5331
   -36.5331 -36.5331 -36.5331 -36.5331 -36.5331 -36.5173 -36.5173 -36.5173
   -36.5173 -36.5173 -36.5173 -36.5173 -36.5173 -36.5173 -36.5173 -36.5173
   -36.5173 -36.5063 -36.5063 -36.5063 -36.5063 -36.5063 -36.5063 -36.5063
   -36.5063 -36.5063 -36.5063 -36.5063 -36.5063 -36.5063 -36.5063 -36.5063
   -36.5063 -36.4911 -36.4911 -36.4911 -36.4911 -36.4911 -36.4911 -36.4911
   -36.4911 -36.4911 -36.4911 -36.4911 -36.4911 -36.4880 -36.4880 -36.4880
   -36.4880 -36.4880 -36.4880 -36.4879 -36.4879 -36.4879 -36.4879 -36.4879
   -36.4879 -36.4710 -36.4709 -36.4709 -36.4709 -36.4709 -36.4709 -36.4709
   -36.4709 -36.4252 -36.4252 -36.4252 -36.4248 -36.4248 -36.4248 -36.4248
   -36.4248 -36.4248 -36.4248 -36.4248 -36.4248 -36.4248 -36.4248 -36.4248
     9.1524  11.2055  11.2055  11.2055  11.2055  11.2055  11.2055  12.3524
    12.3524  12.3524  12.3524  12.3524  12.3524  12.3524  12.3524  12.3524
    12.3524  12.3524  12.3524  12.7925  12.7925  13.2063  13.2063  13.2063
    13.2063  13.2063  13.2063  13.2063  13.2064  13.2064  13.2064  13.2064
    13.2064  13.3722  13.3722  13.3722  13.3722  13.3722  13.3722  13.6637
    13.6637  13.6637  13.6637  13.6637  13.6637  13.8482  13.8482  13.8482
    13.8482  13.8482  13.8482  13.8482  13.8482  13.9104  13.9105  13.9105
    13.9105  13.9105  13.9105  13.9105  13.9105  14.2357  14.2357  14.2357
    14.2357  14.2357  14.2357  14.2357  14.2357  14.2357  14.2357  14.2357
    14.2357  14.2357  14.2357  14.2357  14.2357  14.4469  14.4469  14.4469
    14.4469  14.4469  14.4469  14.4469  14.4469  14.4469  14.4469  14.4469
    14.4469  14.4472  14.4472  14.4472  14.4472  14.4472  14.4472  14.4472
    14.4472  14.4472  14.4472  14.4472  14.4472  14.4472  14.4472  14.4472
    14.4472  14.7190  14.7190  14.7190  14.7190  14.7190  14.7190  14.7190
    14.7190  14.7190  14.7191  14.7191  14.7191  14.8596  14.8596  14.8596
    14.8596  14.8596  14.8597  14.8597  14.8597  14.8597  14.8597  14.8597
    14.8597  15.2335  15.2335  15.2335  15.3224  15.3224  15.3224  15.3224
    15.3224  15.3224  15.3224  15.3224  15.3224  15.3224  15.3224  15.3224
    15.4614  15.4614  15.4614  15.4615  15.4615  15.4615  15.5155  15.5155
    15.5155  15.5155  15.5155  15.5155  15.5155  15.5155  15.5155  15.5155
    15.5155  15.5155  15.7908  15.7908  15.7908  15.7909  15.7909  15.7909
    16.0839  16.0839  16.0839  16.0839  16.0839  16.0839  16.0839  16.0839
    16.0839  16.0839  16.0839  16.0839  16.3118  16.3118  16.3118  16.3118
    16.3118  16.3118  16.3118  16.3118  16.3118  16.3118  16.3118  16.3118
    16.3637  16.3637  16.3649  16.3649  16.3649  16.3649  16.3649  16.3649
    16.3649  16.3649  16.3649  16.3649  16.3649  16.3649  16.4785  16.4785
    16.4785  16.4785  16.4785  16.4785  16.4785  16.4785  16.4785  16.4785
    16.4785  16.4785  16.4889  16.4889  16.4889  16.4889  16.4889  16.4889
    16.4889  16.4889  16.4889  16.4889  16.4889  16.4889  16.4889  16.4889
    16.4889  16.4889  16.6618  16.6618  16.6618  16.6618  16.6618  16.6618
    16.6618  16.6618  16.6618  16.6618  16.6618  16.6618  16.6618  16.6618
    16.6618  16.6618  16.7343  16.7343  16.7343  16.7343  16.7343  16.7343
    16.9461  16.9461  16.9461  16.9461  16.9461  16.9461  17.0639  17.0639
    17.0639  17.0639  17.0639  17.0639  17.0639  17.0639  17.0639  17.0639
    17.0639  17.0639  17.5434  17.5434  17.5434  17.7361  17.7361  17.7361
    17.7361  17.7361  17.7361  17.7361  17.7361  17.7361  17.7361  17.7361
    17.7361  19.4040  19.4041  19.4041  19.4041  19.4041  19.4041  19.4041
    19.4041  20.1763  20.1763  20.1763  20.1763  20.1763

     occupation numbers 
     1.0000   1.0000   1.0000   1.0000   1.0000   1.0000   1.0000   1.0000
     1.0000   1.0000   1.0000   1.0000   1.0000   1.0000   1.0000   1.0000
     1.0000   1.0000   1.0000   1.0000   1.0000   1.0000   1.0000   1.0000
     1.0000   1.0000   1.0000   1.0000   1.0000   1.0000   1.0000   1.0000
     1.0000   1.0000   1.0000   1.0000   1.0000   1.0000   1.0000   1.0000
     1.0000   1.0000   1.0000   1.0000   1.0000   1.0000   1.0000   1.0000
     1.0000   1.0000   1.0000   1.0000   1.0000   1.0000   1.0000   1.0000
     1.0000   1.0000   1.0000   1.0000   1.0000   1.0000   1.0000   1.0000
     1.0000   1.0000   1.0000   1.0000   1.0000   1.0000   1.0000   1.0000
     1.0000   1.0000   1.0000   1.0000   1.0000   1.0000   1.0000   1.0000
     1.0000   1.0000   1.0000   1.0000   1.0000   1.0000   1.0000   1.0000
     1.0000   1.0000   1.0000   1.0000   1.0000   1.0000   1.0000   1.0000
     1.0000   1.0000   1.0000   1.0000   1.0000   1.0000   1.0000   1.0000
     1.0000   1.0000   1.0000   1.0000   1.0000   1.0000   1.0000   1.0000
     1.0000   1.0000   1.0000   1.0000   1.0000   1.0000   1.0000   1.0000
     1.0000   1.0000   1.0000   1.0000   1.0000   1.0000   1.0000   1.0000
     1.0000   1.0000   1.0000   1.0000   1.0000   1.0000   1.0000   1.0000
     1.0000   1.0000   1.0000   1.0000   1.0000   1.0000   1.0000   1.0000
     1.0000   1.0000   1.0000   1.0000   1.0000   1.0000   1.0000   1.0000
     1.0000   1.0000   1.0000   1.0000   1.0000   1.0000   1.0000   1.0000
     1.0000   1.0000   1.0000   1.0000   1.0000   1.0000   1.0000   1.0000
     1.0000   1.0000   1.0000   1.0000   1.0000   1.0000   1.0000   1.0000
     1.0000   1.0000   1.0000   1.0000   1.0000   1.0000   1.0000   1.0000
     1.0000   1.0000   1.0000   1.0000   1.0000   1.0000   1.0000   1.0000
     1.0000   1.0000   1.0000   1.0000   1.0000   1.0000   1.0000   1.0000
     1.0000   1.0000   1.0000   1.0000   1.0000   1.0000   1.0000   1.0000
     1.0000   1.0000   1.0000   1.0000   1.0000   1.0000   1.0000   1.0000
     1.0000   1.0000   1.0000   1.0000   1.0000   1.0000   1.0000   1.0000
     1.0000   1.0000   1.0000   1.0000   1.0000   1.0000   1.0000   1.0000
     1.0000   1.0000   1.0000   1.0000   1.0000   1.0000   1.0000   1.0000
     1.0000   1.0000   1.0000   1.0000   1.0000   1.0000   1.0000   1.0000
     1.0000   1.0000   1.0000   1.0000   1.0000   1.0000   1.0000   1.0000
     1.0000   1.0000   1.0000   1.0000   1.0000   1.0000   1.0000   1.0000
     1.0000   1.0000   1.0000   1.0000   1.0000   1.0000   1.0000   1.0000
     1.0000   1.0000   1.0000   1.0000   1.0000   1.0000   1.0000   1.0000
     1.0000   1.0000   1.0000   1.0000   1.0000   1.0000   1.0000   1.0000
     1.0000   1.0000   1.0000   1.0000   1.0000   1.0000   1.0000   1.0000
     1.0000   1.0000   1.0000   1.0000   1.0000   1.0000   1.0000   1.0000
     1.0000   1.0000   1.0000   1.0000   1.0000   1.0000   1.0000   1.0000
     1.0000   1.0000   1.0000   1.0000   1.0000   1.0000   1.0000   1.0000
     1.0000   1.0000   1.0000   1.0000   1.0000   1.0000   1.0000   1.0000
     1.0000   1.0000   1.0000   1.0000   1.0000   1.0000   1.0000   1.0000
     1.0000   1.0000   1.0000   1.0000   1.0000   1.0000   1.0000   1.0000
     1.0000   1.0000   1.0000   1.0000   1.0000   1.0000   1.0000   1.0000
     1.0000   1.0000   1.0000   1.0000   1.0000   1.0000   1.0000   1.0000
     1.0000   1.0000   1.0000   1.0000   1.0000   1.0000   1.0000   1.0000
     1.0000   1.0000   1.0000   1.0000   1.0000   1.0000   1.0000   1.0000
     1.0000   1.0000   1.0000   1.0000   1.0000   1.0000   1.0000   1.0000
     1.0000   1.0000   1.0000   1.0000   1.0000   1.0000   1.0000   1.0000
     1.0000   1.0000   1.0000   1.0000   1.0000   1.0000   1.0000   1.0000
     1.0000   1.0000   1.0000   1.0000   1.0000   1.0000   1.0000   1.0000
     1.0000   1.0000   1.0000   1.0000   1.0000   1.0000   1.0000   1.0000
[...]
     atom   48 type  1   force =    -0.00000879    0.00000000   -0.00000879
     atom   49 type  1   force =    -0.00000576   -0.00000576   -0.00000000
     atom   50 type  1   force =     0.00000973    0.00000973   -0.00000973
     atom   51 type  1   force =    -0.00001163   -0.00001163    0.00001163
     atom   52 type  1   force =    -0.00000879   -0.00000879    0.00000000
     atom   53 type  1   force =    -0.00001163   -0.00001163   -0.00001163
     atom   54 type  1   force =     0.00000973    0.00000973    0.00000973
     The core correction contribution to forces
     atom    1 type  1   force =     0.00000000    0.00000000    0.00000000
     atom    2 type  1   force =    -0.00000006   -0.00000006   -0.00000006
     atom    3 type  1   force =     0.00000000    0.00000000    0.00000000
     atom    4 type  1   force =    -0.00000001   -0.00000001   -0.00000000
     atom    5 type  1   force =     0.00000000    0.00000000   -0.00000000
     atom    6 type  1   force =    -0.00000006   -0.00000006    0.00000006
     atom    7 type  1   force =     0.00000000    0.00000000    0.00000000
     atom    8 type  1   force =    -0.00000001   -0.00000000   -0.00000001
     atom    9 type  1   force =     0.00000000    0.00000025    0.00000025
     atom   10 type  1   force =    -0.00000009   -0.00000000   -0.00000000
     atom   11 type  1   force =     0.00000000    0.00000025   -0.00000025
     atom   12 type  1   force =    -0.00000001   -0.00000000    0.00000001
     atom   13 type  1   force =     0.00000000   -0.00000000    0.00000000
     atom   14 type  1   force =    -0.00000006    0.00000006   -0.00000006
     atom   15 type  1   force =     0.00000000   -0.00000025    0.00000025
     atom   16 type  1   force =    -0.00000001    0.00000001   -0.00000000
     atom   17 type  1   force =     0.00000000   -0.00000025   -0.00000025
     atom   18 type  1   force =    -0.00000006    0.00000006    0.00000006
     atom   19 type  1   force =     0.00000000    0.00000000    0.00000000
     atom   20 type  1   force =    -0.00000000   -0.00000001   -0.00000001
     atom   21 type  1   force =     0.00000025    0.00000000    0.00000025
     atom   22 type  1   force =    -0.00000000   -0.00000009   -0.00000000
     atom   23 type  1   force =     0.00000025    0.00000000   -0.00000025
     atom   24 type  1   force =    -0.00000000   -0.00000001    0.00000001
     atom   25 type  1   force =     0.00000025    0.00000025    0.00000000
     atom   26 type  1   force =    -0.00000000   -0.00000000   -0.00000009
     atom   27 type  1   force =    -0.00000027   -0.00000027   -0.00000027
     atom   28 type  1   force =    -0.00000000   -0.00000000   -0.00000000
     atom   29 type  1   force =    -0.00000027   -0.00000027    0.00000027
     atom   30 type  1   force =    -0.00000000   -0.00000000    0.00000009
     atom   31 type  1   force =     0.00000025   -0.00000025    0.00000000
     atom   32 type  1   force =    -0.00000000    0.00000001   -0.00000001
     atom   33 type  1   force =    -0.00000027    0.00000027   -0.00000027
     atom   34 type  1   force =    -0.00000000    0.00000009   -0.00000000
     atom   35 type  1   force =    -0.00000027    0.00000027    0.00000027
     atom   36 type  1   force =    -0.00000000    0.00000001    0.00000001
     atom   37 type  1   force =    -0.00000000    0.00000000    0.00000000
     atom   38 type  1   force =     0.00000006   -0.00000006   -0.00000006
     atom   39 type  1   force =    -0.00000025    0.00000000    0.00000025
     atom   40 type  1   force =     0.00000001   -0.00000001   -0.00000000
     atom   41 type  1   force =    -0.00000025    0.00000000   -0.00000025
     atom   42 type  1   force =     0.00000006   -0.00000006    0.00000006
     atom   43 type  1   force =    -0.00000025    0.00000025    0.00000000
     atom   44 type  1   force =     0.00000001   -0.00000000   -0.00000001
     atom   45 type  1   force =     0.00000027   -0.00000027   -0.00000027
     atom   46 type  1   force =     0.00000009   -0.00000000   -0.00000000
     atom   47 type  1   force =     0.00000027   -0.00000027    0.00000027
     atom   48 type  1   force =     0.00000001   -0.00000000    0.00000001
     atom   49 type  1   force =    -0.00000025   -0.00000025    0.00000000
     atom   50 type  1   force =     0.00000006    0.00000006   -0.00000006
     atom   51 type  1   force =     0.00000027    0.00000027   -0.00000027
     atom   52 type  1   force =     0.00000001    0.00000001   -0.00000000
     atom   53 type  1   force =     0.00000027    0.00000027    0.00000027
     atom   54 type  1   force =     0.00000006    0.00000006    0.00000006
     The Hubbard contrib.    to forces
     atom    1 type  1   force =     0.00000000    0.00000000    0.00000000
     atom    2 type  1   force =     0.00000000    0.00000000    0.00000000
     atom    3 type  1   force =     0.00000000    0.00000000    0.00000000
     atom    4 type  1   force =     0.00000000    0.00000000    0.00000000
     atom    5 type  1   force =     0.00000000    0.00000000    0.00000000
     atom    6 type  1   force =     0.00000000    0.00000000    0.00000000
     atom    7 type  1   force =     0.00000000    0.00000000    0.00000000
     atom    8 type  1   force =     0.00000000    0.00000000    0.00000000
     atom    9 type  1   force =     0.00000000    0.00000000    0.00000000
     atom   10 type  1   force =     0.00000000    0.00000000    0.00000000
     atom   11 type  1   force =     0.00000000    0.00000000    0.00000000
     atom   12 type  1   force =     0.00000000    0.00000000    0.00000000
     atom   13 type  1   force =     0.00000000    0.00000000    0.00000000
     atom   14 type  1   force =     0.00000000    0.00000000    0.00000000
     atom   15 type  1   force =     0.00000000    0.00000000    0.00000000
     atom   16 type  1   force =     0.00000000    0.00000000    0.00000000
     atom   17 type  1   force =     0.00000000    0.00000000    0.00000000
     atom   18 type  1   force =     0.00000000    0.00000000    0.00000000
     atom   19 type  1   force =     0.00000000    0.00000000    0.00000000
     atom   20 type  1   force =     0.00000000    0.00000000    0.00000000
     atom   21 type  1   force =     0.00000000    0.00000000    0.00000000
     atom   22 type  1   force =     0.00000000    0.00000000    0.00000000
     atom   23 type  1   force =     0.00000000    0.00000000    0.00000000
     atom   24 type  1   force =     0.00000000    0.00000000    0.00000000
     atom   25 type  1   force =     0.00000000    0.00000000    0.00000000
     atom   26 type  1   force =     0.00000000    0.00000000    0.00000000
     atom   27 type  1   force =     0.00000000    0.00000000    0.00000000
     atom   28 type  1   force =     0.00000000    0.00000000    0.00000000
     atom   29 type  1   force =     0.00000000    0.00000000    0.00000000
     atom   30 type  1   force =     0.00000000    0.00000000    0.00000000
     atom   31 type  1   force =     0.00000000    0.00000000    0.00000000
     atom   32 type  1   force =     0.00000000    0.00000000    0.00000000
     atom   33 type  1   force =     0.00000000    0.00000000    0.00000000
     atom   34 type  1   force =     0.00000000    0.00000000    0.00000000
     atom   35 type  1   force =     0.00000000    0.00000000    0.00000000
     atom   36 type  1   force =     0.00000000    0.00000000    0.00000000
     atom   37 type  1   force =     0.00000000    0.00000000    0.00000000
     atom   38 type  1   force =     0.00000000    0.00000000    0.00000000
     atom   39 type  1   force =     0.00000000    0.00000000    0.00000000
     atom   40 type  1   force =     0.00000000    0.00000000    0.00000000
     atom   41 type  1   force =     0.00000000    0.00000000    0.00000000
     atom   42 type  1   force =     0.00000000    0.00000000    0.00000000
     atom   43 type  1   force =     0.00000000    0.00000000    0.00000000
     atom   44 type  1   force =     0.00000000    0.00000000    0.00000000
     atom   45 type  1   force =     0.00000000    0.00000000    0.00000000
     atom   46 type  1   force =     0.00000000    0.00000000    0.00000000
     atom   47 type  1   force =     0.00000000    0.00000000    0.00000000
     atom   48 type  1   force =     0.00000000    0.00000000    0.00000000
     atom   49 type  1   force =     0.00000000    0.00000000    0.00000000
     atom   50 type  1   force =     0.00000000    0.00000000    0.00000000
     atom   51 type  1   force =     0.00000000    0.00000000    0.00000000
     atom   52 type  1   force =     0.00000000    0.00000000    0.00000000
     atom   53 type  1   force =     0.00000000    0.00000000    0.00000000
     atom   54 type  1   force =     0.00000000    0.00000000    0.00000000
     The SCF correction term to forces
     atom    1 type  1   force =     0.00000000    0.00000000    0.00000000
     atom    2 type  1   force =     0.00001558    0.00001558    0.00001558
     atom    3 type  1   force =    -0.00000000    0.00000000   -0.00001405
     atom    4 type  1   force =    -0.00000135   -0.00000135   -0.00000000
     atom    5 type  1   force =     0.00000000    0.00000000    0.00001405
     atom    6 type  1   force =     0.00001558    0.00001558   -0.00001558
     atom    7 type  1   force =     0.00000000   -0.00001405    0.00000000
     atom    8 type  1   force =    -0.00000135   -0.00000000   -0.00000135
     atom    9 type  1   force =    -0.00000000   -0.00000314   -0.00000314
     atom   10 type  1   force =    -0.00002335    0.00000000   -0.00000000
     atom   11 type  1   force =     0.00000000   -0.00000314    0.00000314
     atom   12 type  1   force =    -0.00000135   -0.00000000    0.00000135
     atom   13 type  1   force =     0.00000000    0.00001405    0.00000000
     atom   14 type  1   force =     0.00001558   -0.00001558    0.00001558
     atom   15 type  1   force =    -0.00000000    0.00000314   -0.00000314
     atom   16 type  1   force =    -0.00000135    0.00000135   -0.00000000
     atom   17 type  1   force =     0.00000000    0.00000314    0.00000314
     atom   18 type  1   force =     0.00001558   -0.00001558   -0.00001558
     atom   19 type  1   force =    -0.00001405   -0.00000000    0.00000000
     atom   20 type  1   force =    -0.00000000   -0.00000135   -0.00000135
     atom   21 type  1   force =    -0.00000314   -0.00000000   -0.00000314
     atom   22 type  1   force =    -0.00000000   -0.00002335   -0.00000000
     atom   23 type  1   force =    -0.00000314    0.00000000    0.00000314
     atom   24 type  1   force =    -0.00000000   -0.00000135    0.00000135
     atom   25 type  1   force =    -0.00000314   -0.00000314    0.00000000
     atom   26 type  1   force =    -0.00000000   -0.00000000   -0.00002335
     atom   27 type  1   force =    -0.00000197   -0.00000197   -0.00000197
     atom   28 type  1   force =    -0.00000000   -0.00000000   -0.00000000
     atom   29 type  1   force =    -0.00000197   -0.00000197    0.00000197
     atom   30 type  1   force =    -0.00000000   -0.00000000    0.00002335
     atom   31 type  1   force =    -0.00000314    0.00000314    0.00000000
     atom   32 type  1   force =    -0.00000000    0.00000135   -0.00000135
     atom   33 type  1   force =    -0.00000197    0.00000197   -0.00000197
     atom   34 type  1   force =    -0.00000000    0.00002335   -0.00000000
     atom   35 type  1   force =    -0.00000197    0.00000197    0.00000197
     atom   36 type  1   force =    -0.00000000    0.00000135    0.00000135
     atom   37 type  1   force =     0.00001405    0.00000000    0.00000000
     atom   38 type  1   force =    -0.00001558    0.00001558    0.00001558
     atom   39 type  1   force =     0.00000314   -0.00000000   -0.00000314
     atom   40 type  1   force =     0.00000135   -0.00000135   -0.00000000
     atom   41 type  1   force =     0.00000314   -0.00000000    0.00000314
     atom   42 type  1   force =    -0.00001558    0.00001558   -0.00001558
     atom   43 type  1   force =     0.00000314   -0.00000314    0.00000000
     atom   44 type  1   force =     0.00000135   -0.00000000   -0.00000135
     atom   45 type  1   force =     0.00000197   -0.00000197   -0.00000197
     atom   46 type  1   force =     0.00002335   -0.00000000   -0.00000000
     atom   47 type  1   force =     0.00000197   -0.00000197    0.00000197
     atom   48 type  1   force =     0.00000135   -0.00000000    0.00000135
     atom   49 type  1   force =     0.00000314    0.00000314    0.00000000
     atom   50 type  1   force =    -0.00001558   -0.00001558    0.00001558
     atom   51 type  1   force =     0.00000197    0.00000197   -0.00000197
     atom   52 type  1   force =     0.00000135    0.00000135   -0.00000000
     atom   53 type  1   force =     0.00000197    0.00000197    0.00000197
     atom   54 type  1   force =    -0.00001558   -0.00001558   -0.00001558

     Total force =     0.000024     Total SCF correction =     0.000103
     SCF correction compared to forces is large: reduce conv_thr to get better values


     Computing stress (Cartesian axis) and pressure


     negative rho (up, down):  0.000E+00 2.651E-03
          total   stress  (Ry/bohr**3)                   (kbar)     P=      -72.39
  -0.00049212   0.00000000   0.00000000          -72.39        0.00        0.00
   0.00000000  -0.00049212   0.00000000            0.00      -72.39        0.00
   0.00000000   0.00000000  -0.00049212            0.00        0.00      -72.39

     kinetic stress (kbar)  95422.02      0.00      0.00
                                0.00  95422.02      0.00
                                0.00      0.00  95422.02

     local   stress (kbar)  12109.44      0.00      0.00
                                0.00  12109.44     -0.00
                                0.00     -0.00  12109.44

     nonloc. stress (kbar) -26160.52      0.00      0.00
                                0.00 -26160.52      0.00
                                0.00      0.00 -26160.52

     hartree stress (kbar)  40795.96     -0.00      0.00
                               -0.00  40795.96     -0.00
                                0.00     -0.00  40795.96

     exc-cor stress (kbar) -13739.54     -0.00     -0.00
                               -0.00 -13739.54     -0.00
                               -0.00     -0.00 -13739.54

     corecor stress (kbar)  -2619.82     -0.00      0.00
                               -0.00  -2619.82      0.00
                                0.00      0.00  -2619.82

     ewald   stress (kbar)-105879.93      0.00      0.00
                                0.00-105879.93     -0.00
                                0.00     -0.00-105879.93

     hubbard stress (kbar)      0.00      0.00      0.00
                                0.00      0.00      0.00
                                0.00      0.00      0.00

     DFT-D   stress (kbar)      0.00      0.00      0.00
                                0.00      0.00      0.00
                                0.00      0.00      0.00

     XDM     stress (kbar)      0.00      0.00      0.00
                                0.00      0.00      0.00
                                0.00      0.00      0.00

     dft-nl  stress (kbar)      0.00      0.00      0.00
                                0.00      0.00      0.00
                                0.00      0.00      0.00

     TS-vdW  stress (kbar)      0.00      0.00      0.00
                                0.00      0.00      0.00
                                0.00      0.00      0.00

     MDB     stress (kbar)      0.00      0.00      0.00
                                0.00      0.00      0.00
                                0.00      0.00      0.00

     3D-RISM stress (kbar)      0.00      0.00      0.00
                                0.00      0.00      0.00
                                0.00      0.00      0.00


     Writing all to output data dir ./out/fe.save/ :
     XML data file, charge density, pseudopotentials, collected wavefunctions

     init_run     :     28.05s CPU     29.64s WALL (       1 calls)
     electrons    :   3094.70s CPU   3256.05s WALL (       1 calls)
     forces       :     14.99s CPU     15.70s WALL (       1 calls)
     stress       :    300.37s CPU    305.87s WALL (       1 calls)

     Called by init_run:
     wfcinit      :     23.16s CPU     24.14s WALL (       1 calls)
     wfcinit:atom :      0.10s CPU      0.19s WALL (       5 calls)
     wfcinit:wfcr :     22.23s CPU     23.01s WALL (       5 calls)
     potinit      :      1.81s CPU      2.10s WALL (       1 calls)
     hinit0       :      1.36s CPU      1.43s WALL (       1 calls)

     Called by electrons:
     c_bands      :   2597.43s CPU   2722.65s WALL (      40 calls)
     sum_band     :    427.03s CPU    450.29s WALL (      40 calls)
     v_of_rho     :     41.75s CPU     49.10s WALL (      41 calls)
     v_h          :      0.91s CPU      1.08s WALL (      41 calls)
     v_xc         :     42.52s CPU     49.86s WALL (      43 calls)
     newd         :     10.32s CPU     12.58s WALL (      41 calls)
     PAW_pot      :     11.92s CPU     13.51s WALL (      41 calls)
     mix_rho      :      1.65s CPU      2.05s WALL (      40 calls)

     Called by c_bands:
     init_us_2    :     32.26s CPU     32.89s WALL (     415 calls)
     cegterg      :   2414.99s CPU   2515.96s WALL (     200 calls)

     Called by sum_band:
     sum_band:wei :      0.18s CPU      0.20s WALL (      40 calls)
     sum_band:loo :    395.14s CPU    411.74s WALL (      40 calls)
     sum_band:buf :      4.93s CPU      5.41s WALL (     200 calls)
     sum_band:ini :     11.54s CPU     11.70s WALL (     200 calls)
     sum_band:cal :     98.72s CPU    102.96s WALL (     200 calls)
     sum_band:bec :      1.18s CPU      1.21s WALL (     200 calls)
     addusdens    :     11.42s CPU     13.67s WALL (      40 calls)
                                        0.00s GPU  (      40 calls)
     addusd:skk   :      0.49s CPU      0.63s WALL (      40 calls)
                                        0.00s GPU  (      40 calls)

     Called by *egterg:
     cdiaghg      :    111.63s CPU    125.97s WALL (     769 calls)
     cegterg:over :    219.19s CPU    226.40s WALL (     569 calls)
     cegterg:upda :    143.49s CPU    149.99s WALL (     569 calls)
     cegterg:last :    336.26s CPU    346.16s WALL (     366 calls)
     cdiaghg:chol :      9.12s CPU     10.54s WALL (     769 calls)
     cdiaghg:inve :      9.50s CPU     11.25s WALL (     769 calls)
     cdiaghg:para :     23.67s CPU     28.99s WALL (    1538 calls)
     h_psi        :   1312.66s CPU   1360.52s WALL (     774 calls)
     s_psi        :    210.89s CPU    213.26s WALL (     774 calls)
     g_psi        :      3.27s CPU      3.31s WALL (     569 calls)

     Called by h_psi:
     h_psi:calbec :    225.34s CPU    233.89s WALL (     774 calls)
     vloc_psi     :    866.73s CPU    896.71s WALL (     774 calls)
     add_vuspsi   :    211.99s CPU    214.01s WALL (     774 calls)

     General routines
     calbec       :    342.70s CPU    356.97s WALL (     999 calls)
     fft          :     23.07s CPU     28.37s WALL (    1063 calls)
     ffts         :      1.08s CPU      1.37s WALL (     162 calls)
     fftw         :    564.06s CPU    596.41s WALL (  548608 calls)
     interpolate  :      3.09s CPU      3.56s WALL (      82 calls)

     Parallel routines

     PAW routines
     PAW_pot      :     11.92s CPU     13.51s WALL (      41 calls)
     PAW_symme    :      0.64s CPU      0.83s WALL (      81 calls)

     PWSCF        :   3443.61s CPU   3633.84s WALL


   This run was terminated on:   1:28:13  23May2025            

=------------------------------------------------------------------------------=
   JOB DONE.
=------------------------------------------------------------------------------=
