
     Program PWSCF v.7.3.1 starts on 24May2025 at 13:40: 0 

     This program is part of the open-source Quantum ESPRESSO suite
     for quantum simulation of materials; please cite
         "P. Giannozzi et al., J. Phys.:Condens. Matter 21 395502 (2009);
         "P. Giannozzi et al., J. Phys.:Condens. Matter 29 465901 (2017);
         "P. Giannozzi et al., J. Chem. Phys. 152 154105 (2020);
          URL http://www.quantum-espresso.org", 
     in publications or presentations arising from this work. More details at
     http://www.quantum-espresso.org/quote

     Parallel version (MPI & OpenMP), running on     128 processor cores
     Number of MPI processes:               128
     Threads/MPI process:                     1

     MPI processes distributed on     1 nodes
     426783 MiB available memory on the printing compute node when the environment starts

     Waiting for input...
     Reading input from standard input

     Current dimensions of program PWSCF are:
     Max number of different atomic species (ntypx) = 10
     Max number of k-points (npk) =  40000
     Max angular momentum in pseudopotentials (lmaxx) =  4
     file Fe.pbe-spn-kjpaw_psl.1.0.0.UPF: wavefunction(s)  3P 3D renormalized
     Found identity + (  0.1250  0.1250  0.1250) symmetry
     This is a supercell, fractional translations are disabled
     Message from routine setup:
     using ibrav=0 with symmetry is DISCOURAGED, use correct ibrav instead

     K-points division:     npool     =       4
     R & G space division:  proc/nbgrp/npool/nimage =      32
     Subspace diagonalization in iterative solution of the eigenvalue problem:
     one sub-group per band group will be used
     ELPA distributed-memory algorithm (size of sub-group:  5*  5 procs)


     Parallelization info
     --------------------
     sticks:   dense  smooth     PW     G-vecs:    dense   smooth      PW
     Min        1262     421    110               190864    36715    4958
     Max        1263     422    111               190869    36721    4963
     Sum       40413   13477   3545              6107759  1174959  158715

     Using Slab Decomposition



     bravais-lattice index     =            0
     lattice parameter (alat)  =      21.6797  a.u.
     unit-cell volume          =   10189.6541 (a.u.)^3
     number of atoms/cell      =          128
     number of atomic types    =            1
     number of electrons       =      2048.00
     number of Kohn-Sham states=         1229
     kinetic-energy cutoff     =      90.0000  Ry
     charge density cutoff     =    1080.0000  Ry
     scf convergence threshold =      1.0E-07
     mixing beta               =       0.2000
     number of iterations used =            8  plain     mixing
     Exchange-correlation= SLA  PW   PBX  PBC
                           (   1   4   3   4   0   0   0)

     celldm(1)=  21.679694  celldm(2)=   0.000000  celldm(3)=   0.000000
     celldm(4)=   0.000000  celldm(5)=   0.000000  celldm(6)=   0.000000

     crystal axes: (cart. coord. in units of alat)
               a(1) = (   1.000000   0.000000   0.000000 )  
               a(2) = (   0.000000   1.000000   0.000000 )  
               a(3) = (   0.000000   0.000000   1.000000 )  

     reciprocal axes: (cart. coord. in units 2 pi/alat)
               b(1) = (  1.000000  0.000000  0.000000 )  
               b(2) = (  0.000000  1.000000  0.000000 )  
               b(3) = (  0.000000  0.000000  1.000000 )  


     PseudoPot. # 1 for Fe read from file:
     ./pseudo/Fe.pbe-spn-kjpaw_psl.1.0.0.UPF
     MD5 check sum: fc81f059e5c5069939230b1155715ae8
     Pseudo is Projector augmented-wave + core cor, Zval = 16.0
     Generated using &quot;atomic&quot; code by A. Dal Corso  v.6.3
     Shape of augmentation charge: PSQ
     Using radial grid of 1191 points,  6 beta functions with: 
                l(1) =   0
                l(2) =   0
                l(3) =   1
                l(4) =   1
                l(5) =   2
                l(6) =   2
     Q(r) pseudized with 0 coefficients 


     atomic species   valence    mass     pseudopotential
     Fe               16.00    55.84500     Fe( 1.00)

     Starting magnetic structure 
     atomic species   magnetization
     Fe              0.400

     48 Sym. Ops., with inversion, found


                                    s                        frac. trans.

      isym =  1     identity                                     

 cryst.   s( 1) = (     1          0          0      )
                  (     0          1          0      )
                  (     0          0          1      )

 cart.    s( 1) = (  1.0000000  0.0000000  0.0000000 )
                  (  0.0000000  1.0000000  0.0000000 )
                  (  0.0000000  0.0000000  1.0000000 )


      isym =  2     180 deg rotation - cart. axis [0,0,1]        

 cryst.   s( 2) = (    -1          0          0      )
                  (     0         -1          0      )
                  (     0          0          1      )

 cart.    s( 2) = ( -1.0000000  0.0000000  0.0000000 )
                  (  0.0000000 -1.0000000  0.0000000 )
                  (  0.0000000  0.0000000  1.0000000 )


      isym =  3     180 deg rotation - cart. axis [0,1,0]        

 cryst.   s( 3) = (    -1          0          0      )
                  (     0          1          0      )
                  (     0          0         -1      )

 cart.    s( 3) = ( -1.0000000  0.0000000  0.0000000 )
                  (  0.0000000  1.0000000  0.0000000 )
                  (  0.0000000  0.0000000 -1.0000000 )


      isym =  4     180 deg rotation - cart. axis [1,0,0]        

 cryst.   s( 4) = (     1          0          0      )
                  (     0         -1          0      )
                  (     0          0         -1      )

 cart.    s( 4) = (  1.0000000  0.0000000  0.0000000 )
                  (  0.0000000 -1.0000000  0.0000000 )
                  (  0.0000000  0.0000000 -1.0000000 )


      isym =  5     180 deg rotation - cart. axis [1,1,0]        

 cryst.   s( 5) = (     0          1          0      )
                  (     1          0          0      )
                  (     0          0         -1      )

 cart.    s( 5) = (  0.0000000  1.0000000  0.0000000 )
                  (  1.0000000  0.0000000  0.0000000 )
                  (  0.0000000  0.0000000 -1.0000000 )


      isym =  6     180 deg rotation - cart. axis [1,-1,0]       

 cryst.   s( 6) = (     0         -1          0      )
                  (    -1          0          0      )
                  (     0          0         -1      )

 cart.    s( 6) = (  0.0000000 -1.0000000  0.0000000 )
                  ( -1.0000000  0.0000000  0.0000000 )
                  (  0.0000000  0.0000000 -1.0000000 )


      isym =  7      90 deg rotation - cart. axis [0,0,-1]       

 cryst.   s( 7) = (     0         -1          0      )
                  (     1          0          0      )
                  (     0          0          1      )

 cart.    s( 7) = (  0.0000000  1.0000000  0.0000000 )
                  ( -1.0000000  0.0000000  0.0000000 )
                  (  0.0000000  0.0000000  1.0000000 )


      isym =  8      90 deg rotation - cart. axis [0,0,1]        

 cryst.   s( 8) = (     0          1          0      )
                  (    -1          0          0      )
                  (     0          0          1      )

 cart.    s( 8) = (  0.0000000 -1.0000000  0.0000000 )
                  (  1.0000000  0.0000000  0.0000000 )
                  (  0.0000000  0.0000000  1.0000000 )


      isym =  9     180 deg rotation - cart. axis [1,0,1]        

 cryst.   s( 9) = (     0          0          1      )
                  (     0         -1          0      )
                  (     1          0          0      )

 cart.    s( 9) = (  0.0000000  0.0000000  1.0000000 )
                  (  0.0000000 -1.0000000  0.0000000 )
                  (  1.0000000  0.0000000  0.0000000 )


      isym = 10     180 deg rotation - cart. axis [-1,0,1]       

 cryst.   s(10) = (     0          0         -1      )
                  (     0         -1          0      )
                  (    -1          0          0      )

 cart.    s(10) = (  0.0000000  0.0000000 -1.0000000 )
                  (  0.0000000 -1.0000000  0.0000000 )
                  ( -1.0000000  0.0000000  0.0000000 )


      isym = 11      90 deg rotation - cart. axis [0,1,0]        

 cryst.   s(11) = (     0          0         -1      )
                  (     0          1          0      )
                  (     1          0          0      )

 cart.    s(11) = (  0.0000000  0.0000000  1.0000000 )
                  (  0.0000000  1.0000000  0.0000000 )
                  ( -1.0000000  0.0000000  0.0000000 )


      isym = 12      90 deg rotation - cart. axis [0,-1,0]       

 cryst.   s(12) = (     0          0          1      )
                  (     0          1          0      )
                  (    -1          0          0      )

 cart.    s(12) = (  0.0000000  0.0000000 -1.0000000 )
                  (  0.0000000  1.0000000  0.0000000 )
                  (  1.0000000  0.0000000  0.0000000 )


      isym = 13     180 deg rotation - cart. axis [0,1,1]        

 cryst.   s(13) = (    -1          0          0      )
                  (     0          0          1      )
                  (     0          1          0      )

 cart.    s(13) = ( -1.0000000  0.0000000  0.0000000 )
                  (  0.0000000  0.0000000  1.0000000 )
                  (  0.0000000  1.0000000  0.0000000 )


      isym = 14     180 deg rotation - cart. axis [0,1,-1]       

 cryst.   s(14) = (    -1          0          0      )
                  (     0          0         -1      )
                  (     0         -1          0      )

 cart.    s(14) = ( -1.0000000  0.0000000  0.0000000 )
                  (  0.0000000  0.0000000 -1.0000000 )
                  (  0.0000000 -1.0000000  0.0000000 )


      isym = 15      90 deg rotation - cart. axis [-1,0,0]       

 cryst.   s(15) = (     1          0          0      )
                  (     0          0         -1      )
                  (     0          1          0      )

 cart.    s(15) = (  1.0000000  0.0000000  0.0000000 )
                  (  0.0000000  0.0000000  1.0000000 )
                  (  0.0000000 -1.0000000  0.0000000 )


      isym = 16      90 deg rotation - cart. axis [1,0,0]        

 cryst.   s(16) = (     1          0          0      )
                  (     0          0          1      )
                  (     0         -1          0      )

 cart.    s(16) = (  1.0000000  0.0000000  0.0000000 )
                  (  0.0000000  0.0000000 -1.0000000 )
                  (  0.0000000  1.0000000  0.0000000 )


      isym = 17     120 deg rotation - cart. axis [-1,-1,-1]     

 cryst.   s(17) = (     0          0          1      )
                  (     1          0          0      )
                  (     0          1          0      )

 cart.    s(17) = (  0.0000000  1.0000000  0.0000000 )
                  (  0.0000000  0.0000000  1.0000000 )
                  (  1.0000000  0.0000000  0.0000000 )


      isym = 18     120 deg rotation - cart. axis [-1,1,1]       

 cryst.   s(18) = (     0          0         -1      )
                  (    -1          0          0      )
                  (     0          1          0      )

 cart.    s(18) = (  0.0000000 -1.0000000  0.0000000 )
                  (  0.0000000  0.0000000  1.0000000 )
                  ( -1.0000000  0.0000000  0.0000000 )


      isym = 19     120 deg rotation - cart. axis [1,1,-1]       

 cryst.   s(19) = (     0          0         -1      )
                  (     1          0          0      )
                  (     0         -1          0      )

 cart.    s(19) = (  0.0000000  1.0000000  0.0000000 )
                  (  0.0000000  0.0000000 -1.0000000 )
                  ( -1.0000000  0.0000000  0.0000000 )


      isym = 20     120 deg rotation - cart. axis [1,-1,1]       

 cryst.   s(20) = (     0          0          1      )
                  (    -1          0          0      )
                  (     0         -1          0      )

 cart.    s(20) = (  0.0000000 -1.0000000  0.0000000 )
                  (  0.0000000  0.0000000 -1.0000000 )
                  (  1.0000000  0.0000000  0.0000000 )


      isym = 21     120 deg rotation - cart. axis [1,1,1]        

 cryst.   s(21) = (     0          1          0      )
                  (     0          0          1      )
                  (     1          0          0      )

 cart.    s(21) = (  0.0000000  0.0000000  1.0000000 )
                  (  1.0000000  0.0000000  0.0000000 )
                  (  0.0000000  1.0000000  0.0000000 )


      isym = 22     120 deg rotation - cart. axis [-1,1,-1]      

 cryst.   s(22) = (     0         -1          0      )
                  (     0          0         -1      )
                  (     1          0          0      )

 cart.    s(22) = (  0.0000000  0.0000000  1.0000000 )
                  ( -1.0000000  0.0000000  0.0000000 )
                  (  0.0000000 -1.0000000  0.0000000 )


      isym = 23     120 deg rotation - cart. axis [1,-1,-1]      

 cryst.   s(23) = (     0         -1          0      )
                  (     0          0          1      )
                  (    -1          0          0      )

 cart.    s(23) = (  0.0000000  0.0000000 -1.0000000 )
                  ( -1.0000000  0.0000000  0.0000000 )
                  (  0.0000000  1.0000000  0.0000000 )


      isym = 24     120 deg rotation - cart. axis [-1,-1,1]      

 cryst.   s(24) = (     0          1          0      )
                  (     0          0         -1      )
                  (    -1          0          0      )

 cart.    s(24) = (  0.0000000  0.0000000 -1.0000000 )
                  (  1.0000000  0.0000000  0.0000000 )
                  (  0.0000000 -1.0000000  0.0000000 )


      isym = 25     inversion                                    

 cryst.   s(25) = (    -1          0          0      )
                  (     0         -1          0      )
                  (     0          0         -1      )

 cart.    s(25) = ( -1.0000000  0.0000000  0.0000000 )
                  (  0.0000000 -1.0000000  0.0000000 )
                  (  0.0000000  0.0000000 -1.0000000 )


      isym = 26     inv. 180 deg rotation - cart. axis [0,0,1]   

 cryst.   s(26) = (     1          0          0      )
                  (     0          1          0      )
                  (     0          0         -1      )

 cart.    s(26) = (  1.0000000  0.0000000  0.0000000 )
                  (  0.0000000  1.0000000  0.0000000 )
                  (  0.0000000  0.0000000 -1.0000000 )


      isym = 27     inv. 180 deg rotation - cart. axis [0,1,0]   

 cryst.   s(27) = (     1          0          0      )
                  (     0         -1          0      )
                  (     0          0          1      )

 cart.    s(27) = (  1.0000000  0.0000000  0.0000000 )
                  (  0.0000000 -1.0000000  0.0000000 )
                  (  0.0000000  0.0000000  1.0000000 )


      isym = 28     inv. 180 deg rotation - cart. axis [1,0,0]   

 cryst.   s(28) = (    -1          0          0      )
                  (     0          1          0      )
                  (     0          0          1      )

 cart.    s(28) = ( -1.0000000  0.0000000  0.0000000 )
                  (  0.0000000  1.0000000  0.0000000 )
                  (  0.0000000  0.0000000  1.0000000 )


      isym = 29     inv. 180 deg rotation - cart. axis [1,1,0]   

 cryst.   s(29) = (     0         -1          0      )
                  (    -1          0          0      )
                  (     0          0          1      )

 cart.    s(29) = (  0.0000000 -1.0000000  0.0000000 )
                  ( -1.0000000  0.0000000  0.0000000 )
                  (  0.0000000  0.0000000  1.0000000 )


      isym = 30     inv. 180 deg rotation - cart. axis [1,-1,0]  

 cryst.   s(30) = (     0          1          0      )
                  (     1          0          0      )
                  (     0          0          1      )

 cart.    s(30) = (  0.0000000  1.0000000  0.0000000 )
                  (  1.0000000  0.0000000  0.0000000 )
                  (  0.0000000  0.0000000  1.0000000 )


      isym = 31     inv.  90 deg rotation - cart. axis [0,0,-1]  

 cryst.   s(31) = (     0          1          0      )
                  (    -1          0          0      )
                  (     0          0         -1      )

 cart.    s(31) = (  0.0000000 -1.0000000  0.0000000 )
                  (  1.0000000  0.0000000  0.0000000 )
                  (  0.0000000  0.0000000 -1.0000000 )


      isym = 32     inv.  90 deg rotation - cart. axis [0,0,1]   

 cryst.   s(32) = (     0         -1          0      )
                  (     1          0          0      )
                  (     0          0         -1      )

 cart.    s(32) = (  0.0000000  1.0000000  0.0000000 )
                  ( -1.0000000  0.0000000  0.0000000 )
                  (  0.0000000  0.0000000 -1.0000000 )


      isym = 33     inv. 180 deg rotation - cart. axis [1,0,1]   

 cryst.   s(33) = (     0          0         -1      )
                  (     0          1          0      )
                  (    -1          0          0      )

 cart.    s(33) = (  0.0000000  0.0000000 -1.0000000 )
                  (  0.0000000  1.0000000  0.0000000 )
                  ( -1.0000000  0.0000000  0.0000000 )


      isym = 34     inv. 180 deg rotation - cart. axis [-1,0,1]  

 cryst.   s(34) = (     0          0          1      )
                  (     0          1          0      )
                  (     1          0          0      )

 cart.    s(34) = (  0.0000000  0.0000000  1.0000000 )
                  (  0.0000000  1.0000000  0.0000000 )
                  (  1.0000000  0.0000000  0.0000000 )


      isym = 35     inv.  90 deg rotation - cart. axis [0,1,0]   

 cryst.   s(35) = (     0          0          1      )
                  (     0         -1          0      )
                  (    -1          0          0      )

 cart.    s(35) = (  0.0000000  0.0000000 -1.0000000 )
                  (  0.0000000 -1.0000000  0.0000000 )
                  (  1.0000000  0.0000000  0.0000000 )


      isym = 36     inv.  90 deg rotation - cart. axis [0,-1,0]  

 cryst.   s(36) = (     0          0         -1      )
                  (     0         -1          0      )
                  (     1          0          0      )

 cart.    s(36) = (  0.0000000  0.0000000  1.0000000 )
                  (  0.0000000 -1.0000000  0.0000000 )
                  ( -1.0000000  0.0000000  0.0000000 )


      isym = 37     inv. 180 deg rotation - cart. axis [0,1,1]   

 cryst.   s(37) = (     1          0          0      )
                  (     0          0         -1      )
                  (     0         -1          0      )

 cart.    s(37) = (  1.0000000  0.0000000  0.0000000 )
                  (  0.0000000  0.0000000 -1.0000000 )
                  (  0.0000000 -1.0000000  0.0000000 )


      isym = 38     inv. 180 deg rotation - cart. axis [0,1,-1]  

 cryst.   s(38) = (     1          0          0      )
                  (     0          0          1      )
                  (     0          1          0      )

 cart.    s(38) = (  1.0000000  0.0000000  0.0000000 )
                  (  0.0000000  0.0000000  1.0000000 )
                  (  0.0000000  1.0000000  0.0000000 )


      isym = 39     inv.  90 deg rotation - cart. axis [-1,0,0]  

 cryst.   s(39) = (    -1          0          0      )
                  (     0          0          1      )
                  (     0         -1          0      )

 cart.    s(39) = ( -1.0000000  0.0000000  0.0000000 )
                  (  0.0000000  0.0000000 -1.0000000 )
                  (  0.0000000  1.0000000  0.0000000 )


      isym = 40     inv.  90 deg rotation - cart. axis [1,0,0]   

 cryst.   s(40) = (    -1          0          0      )
                  (     0          0         -1      )
                  (     0          1          0      )

 cart.    s(40) = ( -1.0000000  0.0000000  0.0000000 )
                  (  0.0000000  0.0000000  1.0000000 )
                  (  0.0000000 -1.0000000  0.0000000 )


      isym = 41     inv. 120 deg rotation - cart. axis [-1,-1,-1]

 cryst.   s(41) = (     0          0         -1      )
                  (    -1          0          0      )
                  (     0         -1          0      )

 cart.    s(41) = (  0.0000000 -1.0000000  0.0000000 )
                  (  0.0000000  0.0000000 -1.0000000 )
                  ( -1.0000000  0.0000000  0.0000000 )


      isym = 42     inv. 120 deg rotation - cart. axis [-1,1,1]  

 cryst.   s(42) = (     0          0          1      )
                  (     1          0          0      )
                  (     0         -1          0      )

 cart.    s(42) = (  0.0000000  1.0000000  0.0000000 )
                  (  0.0000000  0.0000000 -1.0000000 )
                  (  1.0000000  0.0000000  0.0000000 )


      isym = 43     inv. 120 deg rotation - cart. axis [1,1,-1]  

 cryst.   s(43) = (     0          0          1      )
                  (    -1          0          0      )
                  (     0          1          0      )

 cart.    s(43) = (  0.0000000 -1.0000000  0.0000000 )
                  (  0.0000000  0.0000000  1.0000000 )
                  (  1.0000000  0.0000000  0.0000000 )


      isym = 44     inv. 120 deg rotation - cart. axis [1,-1,1]  

 cryst.   s(44) = (     0          0         -1      )
                  (     1          0          0      )
                  (     0          1          0      )

 cart.    s(44) = (  0.0000000  1.0000000  0.0000000 )
                  (  0.0000000  0.0000000  1.0000000 )
                  ( -1.0000000  0.0000000  0.0000000 )


      isym = 45     inv. 120 deg rotation - cart. axis [1,1,1]   

 cryst.   s(45) = (     0         -1          0      )
                  (     0          0         -1      )
                  (    -1          0          0      )

 cart.    s(45) = (  0.0000000  0.0000000 -1.0000000 )
                  ( -1.0000000  0.0000000  0.0000000 )
                  (  0.0000000 -1.0000000  0.0000000 )


      isym = 46     inv. 120 deg rotation - cart. axis [-1,1,-1] 

 cryst.   s(46) = (     0          1          0      )
                  (     0          0          1      )
                  (    -1          0          0      )

 cart.    s(46) = (  0.0000000  0.0000000 -1.0000000 )
                  (  1.0000000  0.0000000  0.0000000 )
                  (  0.0000000  1.0000000  0.0000000 )


      isym = 47     inv. 120 deg rotation - cart. axis [1,-1,-1] 

 cryst.   s(47) = (     0          1          0      )
                  (     0          0         -1      )
                  (     1          0          0      )

 cart.    s(47) = (  0.0000000  0.0000000  1.0000000 )
                  (  1.0000000  0.0000000  0.0000000 )
                  (  0.0000000 -1.0000000  0.0000000 )


      isym = 48     inv. 120 deg rotation - cart. axis [-1,-1,1] 

 cryst.   s(48) = (     0         -1          0      )
                  (     0          0          1      )
                  (     1          0          0      )

 cart.    s(48) = (  0.0000000  0.0000000  1.0000000 )
                  ( -1.0000000  0.0000000  0.0000000 )
                  (  0.0000000  1.0000000  0.0000000 )


   Cartesian axes

     site n.     atom                  positions (alat units)
         1        Fe     tau(   1) = (   0.0000000   0.0000000   0.0000000  )
         2        Fe     tau(   2) = (   0.1250000   0.1250000   0.1250000  )
         3        Fe     tau(   3) = (   0.0000000   0.0000000   0.2500000  )
         4        Fe     tau(   4) = (   0.1250000   0.1250000   0.3750000  )
         5        Fe     tau(   5) = (   0.0000000   0.0000000   0.5000000  )
         6        Fe     tau(   6) = (   0.1250000   0.1250000   0.6250000  )
         7        Fe     tau(   7) = (   0.0000000   0.0000000   0.7500000  )
         8        Fe     tau(   8) = (   0.1250000   0.1250000   0.8750000  )
         9        Fe     tau(   9) = (   0.0000000   0.2500000   0.0000000  )
        10        Fe     tau(  10) = (   0.1250000   0.3750000   0.1250000  )
        11        Fe     tau(  11) = (   0.0000000   0.2500000   0.2500000  )
        12        Fe     tau(  12) = (   0.1250000   0.3750000   0.3750000  )
        13        Fe     tau(  13) = (   0.0000000   0.2500000   0.5000000  )
        14        Fe     tau(  14) = (   0.1250000   0.3750000   0.6250000  )
        15        Fe     tau(  15) = (   0.0000000   0.2500000   0.7500000  )
        16        Fe     tau(  16) = (   0.1250000   0.3750000   0.8750000  )
        17        Fe     tau(  17) = (   0.0000000   0.5000000   0.0000000  )
        18        Fe     tau(  18) = (   0.1250000   0.6250000   0.1250000  )
        19        Fe     tau(  19) = (   0.0000000   0.5000000   0.2500000  )
        20        Fe     tau(  20) = (   0.1250000   0.6250000   0.3750000  )
        21        Fe     tau(  21) = (   0.0000000   0.5000000   0.5000000  )
        22        Fe     tau(  22) = (   0.1250000   0.6250000   0.6250000  )
        23        Fe     tau(  23) = (   0.0000000   0.5000000   0.7500000  )
        24        Fe     tau(  24) = (   0.1250000   0.6250000   0.8750000  )
        25        Fe     tau(  25) = (   0.0000000   0.7500000   0.0000000  )
        26        Fe     tau(  26) = (   0.1250000   0.8750000   0.1250000  )
        27        Fe     tau(  27) = (   0.0000000   0.7500000   0.2500000  )
        28        Fe     tau(  28) = (   0.1250000   0.8750000   0.3750000  )
        29        Fe     tau(  29) = (   0.0000000   0.7500000   0.5000000  )
        30        Fe     tau(  30) = (   0.1250000   0.8750000   0.6250000  )
        31        Fe     tau(  31) = (   0.0000000   0.7500000   0.7500000  )
        32        Fe     tau(  32) = (   0.1250000   0.8750000   0.8750000  )
        33        Fe     tau(  33) = (   0.2500000   0.0000000   0.0000000  )
        34        Fe     tau(  34) = (   0.3750000   0.1250000   0.1250000  )
        35        Fe     tau(  35) = (   0.2500000   0.0000000   0.2500000  )
        36        Fe     tau(  36) = (   0.3750000   0.1250000   0.3750000  )
        37        Fe     tau(  37) = (   0.2500000   0.0000000   0.5000000  )
        38        Fe     tau(  38) = (   0.3750000   0.1250000   0.6250000  )
        39        Fe     tau(  39) = (   0.2500000   0.0000000   0.7500000  )
        40        Fe     tau(  40) = (   0.3750000   0.1250000   0.8750000  )
        41        Fe     tau(  41) = (   0.2500000   0.2500000   0.0000000  )
        42        Fe     tau(  42) = (   0.3750000   0.3750000   0.1250000  )
        43        Fe     tau(  43) = (   0.2500000   0.2500000   0.2500000  )
        44        Fe     tau(  44) = (   0.3750000   0.3750000   0.3750000  )
        45        Fe     tau(  45) = (   0.2500000   0.2500000   0.5000000  )
        46        Fe     tau(  46) = (   0.3750000   0.3750000   0.6250000  )
        47        Fe     tau(  47) = (   0.2500000   0.2500000   0.7500000  )
        48        Fe     tau(  48) = (   0.3750000   0.3750000   0.8750000  )
        49        Fe     tau(  49) = (   0.2500000   0.5000000   0.0000000  )
        50        Fe     tau(  50) = (   0.3750000   0.6250000   0.1250000  )
        51        Fe     tau(  51) = (   0.2500000   0.5000000   0.2500000  )
        52        Fe     tau(  52) = (   0.3750000   0.6250000   0.3750000  )
        53        Fe     tau(  53) = (   0.2500000   0.5000000   0.5000000  )
        54        Fe     tau(  54) = (   0.3750000   0.6250000   0.6250000  )
        55        Fe     tau(  55) = (   0.2500000   0.5000000   0.7500000  )
        56        Fe     tau(  56) = (   0.3750000   0.6250000   0.8750000  )
        57        Fe     tau(  57) = (   0.2500000   0.7500000   0.0000000  )
        58        Fe     tau(  58) = (   0.3750000   0.8750000   0.1250000  )
        59        Fe     tau(  59) = (   0.2500000   0.7500000   0.2500000  )
        60        Fe     tau(  60) = (   0.3750000   0.8750000   0.3750000  )
        61        Fe     tau(  61) = (   0.2500000   0.7500000   0.5000000  )
        62        Fe     tau(  62) = (   0.3750000   0.8750000   0.6250000  )
        63        Fe     tau(  63) = (   0.2500000   0.7500000   0.7500000  )
        64        Fe     tau(  64) = (   0.3750000   0.8750000   0.8750000  )
        65        Fe     tau(  65) = (   0.5000000   0.0000000   0.0000000  )
        66        Fe     tau(  66) = (   0.6250000   0.1250000   0.1250000  )
        67        Fe     tau(  67) = (   0.5000000   0.0000000   0.2500000  )
        68        Fe     tau(  68) = (   0.6250000   0.1250000   0.3750000  )
        69        Fe     tau(  69) = (   0.5000000   0.0000000   0.5000000  )
        70        Fe     tau(  70) = (   0.6250000   0.1250000   0.6250000  )
        71        Fe     tau(  71) = (   0.5000000   0.0000000   0.7500000  )
        72        Fe     tau(  72) = (   0.6250000   0.1250000   0.8750000  )
        73        Fe     tau(  73) = (   0.5000000   0.2500000   0.0000000  )
        74        Fe     tau(  74) = (   0.6250000   0.3750000   0.1250000  )
        75        Fe     tau(  75) = (   0.5000000   0.2500000   0.2500000  )
        76        Fe     tau(  76) = (   0.6250000   0.3750000   0.3750000  )
        77        Fe     tau(  77) = (   0.5000000   0.2500000   0.5000000  )
        78        Fe     tau(  78) = (   0.6250000   0.3750000   0.6250000  )
        79        Fe     tau(  79) = (   0.5000000   0.2500000   0.7500000  )
        80        Fe     tau(  80) = (   0.6250000   0.3750000   0.8750000  )
        81        Fe     tau(  81) = (   0.5000000   0.5000000   0.0000000  )
        82        Fe     tau(  82) = (   0.6250000   0.6250000   0.1250000  )
        83        Fe     tau(  83) = (   0.5000000   0.5000000   0.2500000  )
        84        Fe     tau(  84) = (   0.6250000   0.6250000   0.3750000  )
        85        Fe     tau(  85) = (   0.5000000   0.5000000   0.5000000  )
        86        Fe     tau(  86) = (   0.6250000   0.6250000   0.6250000  )
        87        Fe     tau(  87) = (   0.5000000   0.5000000   0.7500000  )
        88        Fe     tau(  88) = (   0.6250000   0.6250000   0.8750000  )
        89        Fe     tau(  89) = (   0.5000000   0.7500000   0.0000000  )
        90        Fe     tau(  90) = (   0.6250000   0.8750000   0.1250000  )
        91        Fe     tau(  91) = (   0.5000000   0.7500000   0.2500000  )
        92        Fe     tau(  92) = (   0.6250000   0.8750000   0.3750000  )
        93        Fe     tau(  93) = (   0.5000000   0.7500000   0.5000000  )
        94        Fe     tau(  94) = (   0.6250000   0.8750000   0.6250000  )
        95        Fe     tau(  95) = (   0.5000000   0.7500000   0.7500000  )
        96        Fe     tau(  96) = (   0.6250000   0.8750000   0.8750000  )
        97        Fe     tau(  97) = (   0.7500000   0.0000000   0.0000000  )
        98        Fe     tau(  98) = (   0.8750000   0.1250000   0.1250000  )
        99        Fe     tau(  99) = (   0.7500000   0.0000000   0.2500000  )
       100        Fe     tau( 100) = (   0.8750000   0.1250000   0.3750000  )
       101        Fe     tau( 101) = (   0.7500000   0.0000000   0.5000000  )
       102        Fe     tau( 102) = (   0.8750000   0.1250000   0.6250000  )
       103        Fe     tau( 103) = (   0.7500000   0.0000000   0.7500000  )
       104        Fe     tau( 104) = (   0.8750000   0.1250000   0.8750000  )
       105        Fe     tau( 105) = (   0.7500000   0.2500000   0.0000000  )
       106        Fe     tau( 106) = (   0.8750000   0.3750000   0.1250000  )
       107        Fe     tau( 107) = (   0.7500000   0.2500000   0.2500000  )
       108        Fe     tau( 108) = (   0.8750000   0.3750000   0.3750000  )
       109        Fe     tau( 109) = (   0.7500000   0.2500000   0.5000000  )
       110        Fe     tau( 110) = (   0.8750000   0.3750000   0.6250000  )
       111        Fe     tau( 111) = (   0.7500000   0.2500000   0.7500000  )
       112        Fe     tau( 112) = (   0.8750000   0.3750000   0.8750000  )
       113        Fe     tau( 113) = (   0.7500000   0.5000000   0.0000000  )
       114        Fe     tau( 114) = (   0.8750000   0.6250000   0.1250000  )
       115        Fe     tau( 115) = (   0.7500000   0.5000000   0.2500000  )
       116        Fe     tau( 116) = (   0.8750000   0.6250000   0.3750000  )
       117        Fe     tau( 117) = (   0.7500000   0.5000000   0.5000000  )
       118        Fe     tau( 118) = (   0.8750000   0.6250000   0.6250000  )
       119        Fe     tau( 119) = (   0.7500000   0.5000000   0.7500000  )
       120        Fe     tau( 120) = (   0.8750000   0.6250000   0.8750000  )
       121        Fe     tau( 121) = (   0.7500000   0.7500000   0.0000000  )
       122        Fe     tau( 122) = (   0.8750000   0.8750000   0.1250000  )
       123        Fe     tau( 123) = (   0.7500000   0.7500000   0.2500000  )
       124        Fe     tau( 124) = (   0.8750000   0.8750000   0.3750000  )
       125        Fe     tau( 125) = (   0.7500000   0.7500000   0.5000000  )
       126        Fe     tau( 126) = (   0.8750000   0.8750000   0.6250000  )
       127        Fe     tau( 127) = (   0.7500000   0.7500000   0.7500000  )
       128        Fe     tau( 128) = (   0.8750000   0.8750000   0.8750000  )

   Crystallographic axes

     site n.     atom                  positions (cryst. coord.)
         1        Fe     tau(   1) = (  0.0000000  0.0000000  0.0000000  )
         2        Fe     tau(   2) = (  0.1250000  0.1250000  0.1250000  )
         3        Fe     tau(   3) = (  0.0000000  0.0000000  0.2500000  )
         4        Fe     tau(   4) = (  0.1250000  0.1250000  0.3750000  )
         5        Fe     tau(   5) = (  0.0000000  0.0000000  0.5000000  )
         6        Fe     tau(   6) = (  0.1250000  0.1250000  0.6250000  )
         7        Fe     tau(   7) = (  0.0000000  0.0000000  0.7500000  )
         8        Fe     tau(   8) = (  0.1250000  0.1250000  0.8750000  )
         9        Fe     tau(   9) = (  0.0000000  0.2500000  0.0000000  )
        10        Fe     tau(  10) = (  0.1250000  0.3750000  0.1250000  )
        11        Fe     tau(  11) = (  0.0000000  0.2500000  0.2500000  )
        12        Fe     tau(  12) = (  0.1250000  0.3750000  0.3750000  )
        13        Fe     tau(  13) = (  0.0000000  0.2500000  0.5000000  )
        14        Fe     tau(  14) = (  0.1250000  0.3750000  0.6250000  )
        15        Fe     tau(  15) = (  0.0000000  0.2500000  0.7500000  )
        16        Fe     tau(  16) = (  0.1250000  0.3750000  0.8750000  )
        17        Fe     tau(  17) = (  0.0000000  0.5000000  0.0000000  )
        18        Fe     tau(  18) = (  0.1250000  0.6250000  0.1250000  )
        19        Fe     tau(  19) = (  0.0000000  0.5000000  0.2500000  )
        20        Fe     tau(  20) = (  0.1250000  0.6250000  0.3750000  )
        21        Fe     tau(  21) = (  0.0000000  0.5000000  0.5000000  )
        22        Fe     tau(  22) = (  0.1250000  0.6250000  0.6250000  )
        23        Fe     tau(  23) = (  0.0000000  0.5000000  0.7500000  )
        24        Fe     tau(  24) = (  0.1250000  0.6250000  0.8750000  )
        25        Fe     tau(  25) = (  0.0000000  0.7500000  0.0000000  )
        26        Fe     tau(  26) = (  0.1250000  0.8750000  0.1250000  )
        27        Fe     tau(  27) = (  0.0000000  0.7500000  0.2500000  )
        28        Fe     tau(  28) = (  0.1250000  0.8750000  0.3750000  )
        29        Fe     tau(  29) = (  0.0000000  0.7500000  0.5000000  )
        30        Fe     tau(  30) = (  0.1250000  0.8750000  0.6250000  )
        31        Fe     tau(  31) = (  0.0000000  0.7500000  0.7500000  )
        32        Fe     tau(  32) = (  0.1250000  0.8750000  0.8750000  )
        33        Fe     tau(  33) = (  0.2500000  0.0000000  0.0000000  )
        34        Fe     tau(  34) = (  0.3750000  0.1250000  0.1250000  )
        35        Fe     tau(  35) = (  0.2500000  0.0000000  0.2500000  )
        36        Fe     tau(  36) = (  0.3750000  0.1250000  0.3750000  )
        37        Fe     tau(  37) = (  0.2500000  0.0000000  0.5000000  )
        38        Fe     tau(  38) = (  0.3750000  0.1250000  0.6250000  )
        39        Fe     tau(  39) = (  0.2500000  0.0000000  0.7500000  )
        40        Fe     tau(  40) = (  0.3750000  0.1250000  0.8750000  )
        41        Fe     tau(  41) = (  0.2500000  0.2500000  0.0000000  )
        42        Fe     tau(  42) = (  0.3750000  0.3750000  0.1250000  )
        43        Fe     tau(  43) = (  0.2500000  0.2500000  0.2500000  )
        44        Fe     tau(  44) = (  0.3750000  0.3750000  0.3750000  )
        45        Fe     tau(  45) = (  0.2500000  0.2500000  0.5000000  )
        46        Fe     tau(  46) = (  0.3750000  0.3750000  0.6250000  )
        47        Fe     tau(  47) = (  0.2500000  0.2500000  0.7500000  )
        48        Fe     tau(  48) = (  0.3750000  0.3750000  0.8750000  )
        49        Fe     tau(  49) = (  0.2500000  0.5000000  0.0000000  )
        50        Fe     tau(  50) = (  0.3750000  0.6250000  0.1250000  )
        51        Fe     tau(  51) = (  0.2500000  0.5000000  0.2500000  )
        52        Fe     tau(  52) = (  0.3750000  0.6250000  0.3750000  )
        53        Fe     tau(  53) = (  0.2500000  0.5000000  0.5000000  )
        54        Fe     tau(  54) = (  0.3750000  0.6250000  0.6250000  )
        55        Fe     tau(  55) = (  0.2500000  0.5000000  0.7500000  )
        56        Fe     tau(  56) = (  0.3750000  0.6250000  0.8750000  )
        57        Fe     tau(  57) = (  0.2500000  0.7500000  0.0000000  )
        58        Fe     tau(  58) = (  0.3750000  0.8750000  0.1250000  )
        59        Fe     tau(  59) = (  0.2500000  0.7500000  0.2500000  )
        60        Fe     tau(  60) = (  0.3750000  0.8750000  0.3750000  )
        61        Fe     tau(  61) = (  0.2500000  0.7500000  0.5000000  )
        62        Fe     tau(  62) = (  0.3750000  0.8750000  0.6250000  )
        63        Fe     tau(  63) = (  0.2500000  0.7500000  0.7500000  )
        64        Fe     tau(  64) = (  0.3750000  0.8750000  0.8750000  )
        65        Fe     tau(  65) = (  0.5000000  0.0000000  0.0000000  )
        66        Fe     tau(  66) = (  0.6250000  0.1250000  0.1250000  )
        67        Fe     tau(  67) = (  0.5000000  0.0000000  0.2500000  )
        68        Fe     tau(  68) = (  0.6250000  0.1250000  0.3750000  )
        69        Fe     tau(  69) = (  0.5000000  0.0000000  0.5000000  )
        70        Fe     tau(  70) = (  0.6250000  0.1250000  0.6250000  )
        71        Fe     tau(  71) = (  0.5000000  0.0000000  0.7500000  )
        72        Fe     tau(  72) = (  0.6250000  0.1250000  0.8750000  )
        73        Fe     tau(  73) = (  0.5000000  0.2500000  0.0000000  )
        74        Fe     tau(  74) = (  0.6250000  0.3750000  0.1250000  )
        75        Fe     tau(  75) = (  0.5000000  0.2500000  0.2500000  )
        76        Fe     tau(  76) = (  0.6250000  0.3750000  0.3750000  )
        77        Fe     tau(  77) = (  0.5000000  0.2500000  0.5000000  )
        78        Fe     tau(  78) = (  0.6250000  0.3750000  0.6250000  )
        79        Fe     tau(  79) = (  0.5000000  0.2500000  0.7500000  )
        80        Fe     tau(  80) = (  0.6250000  0.3750000  0.8750000  )
        81        Fe     tau(  81) = (  0.5000000  0.5000000  0.0000000  )
        82        Fe     tau(  82) = (  0.6250000  0.6250000  0.1250000  )
        83        Fe     tau(  83) = (  0.5000000  0.5000000  0.2500000  )
        84        Fe     tau(  84) = (  0.6250000  0.6250000  0.3750000  )
        85        Fe     tau(  85) = (  0.5000000  0.5000000  0.5000000  )
        86        Fe     tau(  86) = (  0.6250000  0.6250000  0.6250000  )
        87        Fe     tau(  87) = (  0.5000000  0.5000000  0.7500000  )
        88        Fe     tau(  88) = (  0.6250000  0.6250000  0.8750000  )
        89        Fe     tau(  89) = (  0.5000000  0.7500000  0.0000000  )
        90        Fe     tau(  90) = (  0.6250000  0.8750000  0.1250000  )
        91        Fe     tau(  91) = (  0.5000000  0.7500000  0.2500000  )
        92        Fe     tau(  92) = (  0.6250000  0.8750000  0.3750000  )
        93        Fe     tau(  93) = (  0.5000000  0.7500000  0.5000000  )
        94        Fe     tau(  94) = (  0.6250000  0.8750000  0.6250000  )
        95        Fe     tau(  95) = (  0.5000000  0.7500000  0.7500000  )
        96        Fe     tau(  96) = (  0.6250000  0.8750000  0.8750000  )
        97        Fe     tau(  97) = (  0.7500000  0.0000000  0.0000000  )
        98        Fe     tau(  98) = (  0.8750000  0.1250000  0.1250000  )
        99        Fe     tau(  99) = (  0.7500000  0.0000000  0.2500000  )
       100        Fe     tau( 100) = (  0.8750000  0.1250000  0.3750000  )
       101        Fe     tau( 101) = (  0.7500000  0.0000000  0.5000000  )
       102        Fe     tau( 102) = (  0.8750000  0.1250000  0.6250000  )
       103        Fe     tau( 103) = (  0.7500000  0.0000000  0.7500000  )
       104        Fe     tau( 104) = (  0.8750000  0.1250000  0.8750000  )
       105        Fe     tau( 105) = (  0.7500000  0.2500000  0.0000000  )
       106        Fe     tau( 106) = (  0.8750000  0.3750000  0.1250000  )
       107        Fe     tau( 107) = (  0.7500000  0.2500000  0.2500000  )
       108        Fe     tau( 108) = (  0.8750000  0.3750000  0.3750000  )
       109        Fe     tau( 109) = (  0.7500000  0.2500000  0.5000000  )
       110        Fe     tau( 110) = (  0.8750000  0.3750000  0.6250000  )
       111        Fe     tau( 111) = (  0.7500000  0.2500000  0.7500000  )
       112        Fe     tau( 112) = (  0.8750000  0.3750000  0.8750000  )
       113        Fe     tau( 113) = (  0.7500000  0.5000000  0.0000000  )
       114        Fe     tau( 114) = (  0.8750000  0.6250000  0.1250000  )
       115        Fe     tau( 115) = (  0.7500000  0.5000000  0.2500000  )
       116        Fe     tau( 116) = (  0.8750000  0.6250000  0.3750000  )
       117        Fe     tau( 117) = (  0.7500000  0.5000000  0.5000000  )
       118        Fe     tau( 118) = (  0.8750000  0.6250000  0.6250000  )
       119        Fe     tau( 119) = (  0.7500000  0.5000000  0.7500000  )
       120        Fe     tau( 120) = (  0.8750000  0.6250000  0.8750000  )
       121        Fe     tau( 121) = (  0.7500000  0.7500000  0.0000000  )
       122        Fe     tau( 122) = (  0.8750000  0.8750000  0.1250000  )
       123        Fe     tau( 123) = (  0.7500000  0.7500000  0.2500000  )
       124        Fe     tau( 124) = (  0.8750000  0.8750000  0.3750000  )
       125        Fe     tau( 125) = (  0.7500000  0.7500000  0.5000000  )
       126        Fe     tau( 126) = (  0.8750000  0.8750000  0.6250000  )
       127        Fe     tau( 127) = (  0.7500000  0.7500000  0.7500000  )
       128        Fe     tau( 128) = (  0.8750000  0.8750000  0.8750000  )

     number of k points=    35  Marzari-Vanderbilt smearing, width (Ry)=  0.0100
                       cart. coord. in units 2pi/alat
        k(    1) = (   0.0000000   0.0000000   0.0000000), wk =   0.0019531
        k(    2) = (   0.0000000   0.0000000   0.1250000), wk =   0.0117188
        k(    3) = (   0.0000000   0.0000000   0.2500000), wk =   0.0117188
        k(    4) = (   0.0000000   0.0000000   0.3750000), wk =   0.0117188
        k(    5) = (   0.0000000   0.0000000  -0.5000000), wk =   0.0058594
        k(    6) = (   0.0000000   0.1250000   0.1250000), wk =   0.0234375
        k(    7) = (   0.0000000   0.1250000   0.2500000), wk =   0.0468750
        k(    8) = (   0.0000000   0.1250000   0.3750000), wk =   0.0468750
        k(    9) = (   0.0000000   0.1250000  -0.5000000), wk =   0.0234375
        k(   10) = (   0.0000000   0.2500000   0.2500000), wk =   0.0234375
        k(   11) = (   0.0000000   0.2500000   0.3750000), wk =   0.0468750
        k(   12) = (   0.0000000   0.2500000  -0.5000000), wk =   0.0234375
        k(   13) = (   0.0000000   0.3750000   0.3750000), wk =   0.0234375
        k(   14) = (   0.0000000   0.3750000  -0.5000000), wk =   0.0234375
        k(   15) = (   0.0000000  -0.5000000  -0.5000000), wk =   0.0058594
        k(   16) = (   0.1250000   0.1250000   0.1250000), wk =   0.0156250
        k(   17) = (   0.1250000   0.1250000   0.2500000), wk =   0.0468750
        k(   18) = (   0.1250000   0.1250000   0.3750000), wk =   0.0468750
        k(   19) = (   0.1250000   0.1250000  -0.5000000), wk =   0.0234375
        k(   20) = (   0.1250000   0.2500000   0.2500000), wk =   0.0468750
        k(   21) = (   0.1250000   0.2500000   0.3750000), wk =   0.0937500
        k(   22) = (   0.1250000   0.2500000  -0.5000000), wk =   0.0468750
        k(   23) = (   0.1250000   0.3750000   0.3750000), wk =   0.0468750
        k(   24) = (   0.1250000   0.3750000  -0.5000000), wk =   0.0468750
        k(   25) = (   0.1250000  -0.5000000  -0.5000000), wk =   0.0117188
        k(   26) = (   0.2500000   0.2500000   0.2500000), wk =   0.0156250
        k(   27) = (   0.2500000   0.2500000   0.3750000), wk =   0.0468750
        k(   28) = (   0.2500000   0.2500000  -0.5000000), wk =   0.0234375
        k(   29) = (   0.2500000   0.3750000   0.3750000), wk =   0.0468750
        k(   30) = (   0.2500000   0.3750000  -0.5000000), wk =   0.0468750
        k(   31) = (   0.2500000  -0.5000000  -0.5000000), wk =   0.0117188
        k(   32) = (   0.3750000   0.3750000   0.3750000), wk =   0.0156250
        k(   33) = (   0.3750000   0.3750000  -0.5000000), wk =   0.0234375
        k(   34) = (   0.3750000  -0.5000000  -0.5000000), wk =   0.0117188
        k(   35) = (  -0.5000000  -0.5000000  -0.5000000), wk =   0.0019531

                       cryst. coord.
        k(    1) = (   0.0000000   0.0000000   0.0000000), wk =   0.0019531
        k(    2) = (   0.0000000   0.0000000   0.1250000), wk =   0.0117188
        k(    3) = (   0.0000000   0.0000000   0.2500000), wk =   0.0117188
        k(    4) = (   0.0000000   0.0000000   0.3750000), wk =   0.0117188
        k(    5) = (   0.0000000   0.0000000  -0.5000000), wk =   0.0058594
        k(    6) = (   0.0000000   0.1250000   0.1250000), wk =   0.0234375
        k(    7) = (   0.0000000   0.1250000   0.2500000), wk =   0.0468750
        k(    8) = (   0.0000000   0.1250000   0.3750000), wk =   0.0468750
        k(    9) = (   0.0000000   0.1250000  -0.5000000), wk =   0.0234375
        k(   10) = (   0.0000000   0.2500000   0.2500000), wk =   0.0234375
        k(   11) = (   0.0000000   0.2500000   0.3750000), wk =   0.0468750
        k(   12) = (   0.0000000   0.2500000  -0.5000000), wk =   0.0234375
        k(   13) = (   0.0000000   0.3750000   0.3750000), wk =   0.0234375
        k(   14) = (   0.0000000   0.3750000  -0.5000000), wk =   0.0234375
        k(   15) = (   0.0000000  -0.5000000  -0.5000000), wk =   0.0058594
        k(   16) = (   0.1250000   0.1250000   0.1250000), wk =   0.0156250
        k(   17) = (   0.1250000   0.1250000   0.2500000), wk =   0.0468750
        k(   18) = (   0.1250000   0.1250000   0.3750000), wk =   0.0468750
        k(   19) = (   0.1250000   0.1250000  -0.5000000), wk =   0.0234375
        k(   20) = (   0.1250000   0.2500000   0.2500000), wk =   0.0468750
        k(   21) = (   0.1250000   0.2500000   0.3750000), wk =   0.0937500
        k(   22) = (   0.1250000   0.2500000  -0.5000000), wk =   0.0468750
        k(   23) = (   0.1250000   0.3750000   0.3750000), wk =   0.0468750
        k(   24) = (   0.1250000   0.3750000  -0.5000000), wk =   0.0468750
        k(   25) = (   0.1250000  -0.5000000  -0.5000000), wk =   0.0117188
        k(   26) = (   0.2500000   0.2500000   0.2500000), wk =   0.0156250
        k(   27) = (   0.2500000   0.2500000   0.3750000), wk =   0.0468750
        k(   28) = (   0.2500000   0.2500000  -0.5000000), wk =   0.0234375
        k(   29) = (   0.2500000   0.3750000   0.3750000), wk =   0.0468750
        k(   30) = (   0.2500000   0.3750000  -0.5000000), wk =   0.0468750
        k(   31) = (   0.2500000  -0.5000000  -0.5000000), wk =   0.0117188
        k(   32) = (   0.3750000   0.3750000   0.3750000), wk =   0.0156250
        k(   33) = (   0.3750000   0.3750000  -0.5000000), wk =   0.0234375
        k(   34) = (   0.3750000  -0.5000000  -0.5000000), wk =   0.0117188
        k(   35) = (  -0.5000000  -0.5000000  -0.5000000), wk =   0.0019531

     Dense  grid:  6107759 G-vectors     FFT dimensions: ( 240, 240, 240)

     Smooth grid:  1174959 G-vectors     FFT dimensions: ( 135, 135, 135)

     Dynamical RAM for                 wfc:      86.10 MB

     Dynamical RAM for     wfc (w. buffer):    1635.81 MB

     Dynamical RAM for           str. fact:       2.91 MB

     Dynamical RAM for           local pot:       0.00 MB

     Dynamical RAM for          nlocal pot:     161.40 MB

     Dynamical RAM for                qrad:       2.64 MB

     Dynamical RAM for          rho,v,vnew:      38.57 MB

     Dynamical RAM for               rhoin:      12.86 MB

     Dynamical RAM for            rho*nmix:      93.20 MB

     Dynamical RAM for           G-vectors:      11.20 MB

     Dynamical RAM for          h,s,v(r/c):      11.04 MB

     Dynamical RAM for          <psi|beta>:      43.21 MB

     Dynamical RAM for                 psi:     172.19 MB

     Dynamical RAM for                hpsi:     172.19 MB

     Dynamical RAM for                spsi:     172.19 MB

     Dynamical RAM for      wfcinit/wfcrot:     216.85 MB

     Dynamical RAM for           addusdens:     233.72 MB

     Dynamical RAM for          addusforce:     417.48 MB

     Dynamical RAM for         addusstress:     149.63 MB

     Estimated static dynamical RAM per process >       1.85 GB

     Estimated max dynamical RAM per process >       2.50 GB

     Estimated total dynamical RAM >     310.80 GB
     Generating pointlists ...
     new r_m :   0.0893 (alat units)  1.9362 (a.u.) for type    1

     Initial potential from superposition of free atoms

     starting charge    2047.9440, renormalised to    2048.0000
     Starting wfcs are 1280 randomized atomic wfcs
     Checking if some PAW data can be deallocated... 

     total cpu time spent up to now is      441.3 secs

     Self-consistent Calculation

     iteration #  1     ecut=    90.00 Ry     beta= 0.20
     Davidson diagonalization with overlap

---- Real-time Memory Report at c_bands before calling an iterative solver
          2878 MiB given to the printing process from OS
         -1956 MiB allocation reported by mallinfo(arena+hblkhd)
        181313 MiB available memory on the node where the printing process lives
------------------
     ethr =  1.00E-02,  avg # of iterations =  3.4

     total cpu time spent up to now is     2210.0 secs

     total energy              =  -42125.90515098 Ry
     estimated scf accuracy    <      35.56520722 Ry

     total magnetization       =   401.04 Bohr mag/cell
     absolute magnetization    =   405.87 Bohr mag/cell

     iteration #  2     ecut=    90.00 Ry     beta= 0.20
     Davidson diagonalization with overlap

---- Real-time Memory Report at c_bands before calling an iterative solver
          3302 MiB given to the printing process from OS
         -1937 MiB allocation reported by mallinfo(arena+hblkhd)
        179735 MiB available memory on the node where the printing process lives
------------------
     ethr =  1.74E-03,  avg # of iterations =  3.5

     negative rho (up, down):  0.000E+00 1.019E-02

     total cpu time spent up to now is     3703.0 secs

     total energy              =  -42140.03094562 Ry
     estimated scf accuracy    <      24.75119830 Ry

     total magnetization       =   389.81 Bohr mag/cell
     absolute magnetization    =   398.77 Bohr mag/cell

     iteration #  3     ecut=    90.00 Ry     beta= 0.20
     Davidson diagonalization with overlap

---- Real-time Memory Report at c_bands before calling an iterative solver
          3327 MiB given to the printing process from OS
         -1934 MiB allocation reported by mallinfo(arena+hblkhd)
        179596 MiB available memory on the node where the printing process lives
------------------
     ethr =  1.21E-03,  avg # of iterations =  5.3

     negative rho (up, down):  0.000E+00 3.878E-02

     total cpu time spent up to now is     5306.1 secs

     total energy              =  -42135.00864012 Ry
     estimated scf accuracy    <     409.27124002 Ry

     total magnetization       =   354.34 Bohr mag/cell
     absolute magnetization    =   366.52 Bohr mag/cell

     iteration #  4     ecut=    90.00 Ry     beta= 0.20
     Davidson diagonalization with overlap

---- Real-time Memory Report at c_bands before calling an iterative solver
          3334 MiB given to the printing process from OS
         -1930 MiB allocation reported by mallinfo(arena+hblkhd)
        179458 MiB available memory on the node where the printing process lives
------------------
     ethr =  1.21E-03,  avg # of iterations =  3.8

     negative rho (up, down):  0.000E+00 5.387E-02

     total cpu time spent up to now is     6804.2 secs

     total energy              =  -42144.51631068 Ry
     estimated scf accuracy    <      42.29284382 Ry

     total magnetization       =   334.38 Bohr mag/cell
     absolute magnetization    =   352.80 Bohr mag/cell

     iteration #  5     ecut=    90.00 Ry     beta= 0.20
     Davidson diagonalization with overlap

---- Real-time Memory Report at c_bands before calling an iterative solver
          3336 MiB given to the printing process from OS
         -1928 MiB allocation reported by mallinfo(arena+hblkhd)
        179351 MiB available memory on the node where the printing process lives
------------------
     ethr =  1.21E-03,  avg # of iterations =  1.3

     negative rho (up, down):  0.000E+00 5.367E-02

     total cpu time spent up to now is     8152.2 secs

     total energy              =  -42145.98067425 Ry
     estimated scf accuracy    <       8.57485965 Ry

     total magnetization       =   324.62 Bohr mag/cell
     absolute magnetization    =   344.48 Bohr mag/cell

     iteration #  6     ecut=    90.00 Ry     beta= 0.20
     Davidson diagonalization with overlap

---- Real-time Memory Report at c_bands before calling an iterative solver
          3340 MiB given to the printing process from OS
         -1925 MiB allocation reported by mallinfo(arena+hblkhd)
        179223 MiB available memory on the node where the printing process lives
------------------
     ethr =  4.19E-04,  avg # of iterations =  2.3

     negative rho (up, down):  0.000E+00 5.152E-02

     total cpu time spent up to now is     9571.8 secs

     total energy              =  -42146.27086148 Ry
     estimated scf accuracy    <       1.87177423 Ry

     total magnetization       =   321.43 Bohr mag/cell
     absolute magnetization    =   341.27 Bohr mag/cell

     iteration #  7     ecut=    90.00 Ry     beta= 0.20
     Davidson diagonalization with overlap

---- Real-time Memory Report at c_bands before calling an iterative solver
          3343 MiB given to the printing process from OS
         -1922 MiB allocation reported by mallinfo(arena+hblkhd)
        179109 MiB available memory on the node where the printing process lives
------------------
     c_bands:  1 eigenvalues not converged
     c_bands:  1 eigenvalues not converged
     ethr =  9.14E-05,  avg # of iterations =  7.8

     negative rho (up, down):  0.000E+00 4.627E-02

     total cpu time spent up to now is    11148.3 secs

     total energy              =  -42146.25412799 Ry
     estimated scf accuracy    <       1.18092026 Ry

     total magnetization       =   320.03 Bohr mag/cell
     absolute magnetization    =   339.71 Bohr mag/cell

     iteration #  8     ecut=    90.00 Ry     beta= 0.20
     Davidson diagonalization with overlap

---- Real-time Memory Report at c_bands before calling an iterative solver
          3346 MiB given to the printing process from OS
         -1918 MiB allocation reported by mallinfo(arena+hblkhd)
        178967 MiB available memory on the node where the printing process lives
------------------
     ethr =  5.77E-05,  avg # of iterations =  3.5

     negative rho (up, down):  0.000E+00 2.750E-02

     total cpu time spent up to now is    12635.3 secs

     total energy              =  -42146.10205170 Ry
     estimated scf accuracy    <       0.91239537 Ry

     total magnetization       =   316.14 Bohr mag/cell
     absolute magnetization    =   336.01 Bohr mag/cell

     iteration #  9     ecut=    90.00 Ry     beta= 0.20
     Davidson diagonalization with overlap

---- Real-time Memory Report at c_bands before calling an iterative solver
          3349 MiB given to the printing process from OS
         -1915 MiB allocation reported by mallinfo(arena+hblkhd)
        178855 MiB available memory on the node where the printing process lives
------------------
     ethr =  4.46E-05,  avg # of iterations =  5.9

     negative rho (up, down):  0.000E+00 2.288E-02

     total cpu time spent up to now is    14438.2 secs

     total energy              =  -42146.36622869 Ry
     estimated scf accuracy    <       1.02710219 Ry

     total magnetization       =   295.15 Bohr mag/cell
     absolute magnetization    =   315.99 Bohr mag/cell

     iteration # 10     ecut=    90.00 Ry     beta= 0.20
     Davidson diagonalization with overlap

---- Real-time Memory Report at c_bands before calling an iterative solver
          3352 MiB given to the printing process from OS
         -1912 MiB allocation reported by mallinfo(arena+hblkhd)
        178755 MiB available memory on the node where the printing process lives
------------------
     ethr =  4.46E-05,  avg # of iterations =  1.7

     negative rho (up, down):  0.000E+00 2.212E-02

     total cpu time spent up to now is    15750.8 secs

     total energy              =  -42146.32635495 Ry
     estimated scf accuracy    <       0.57380762 Ry

     total magnetization       =   290.23 Bohr mag/cell
     absolute magnetization    =   311.19 Bohr mag/cell

     iteration # 11     ecut=    90.00 Ry     beta= 0.20
     Davidson diagonalization with overlap

---- Real-time Memory Report at c_bands before calling an iterative solver
          3355 MiB given to the printing process from OS
         -1912 MiB allocation reported by mallinfo(arena+hblkhd)
        178720 MiB available memory on the node where the printing process lives
------------------
     ethr =  2.80E-05,  avg # of iterations =  1.7

     negative rho (up, down):  0.000E+00 1.699E-02

     total cpu time spent up to now is    17150.3 secs

     total energy              =  -42146.36309007 Ry
     estimated scf accuracy    <       0.32207923 Ry

     total magnetization       =   291.81 Bohr mag/cell
     absolute magnetization    =   312.31 Bohr mag/cell

     iteration # 12     ecut=    90.00 Ry     beta= 0.20
     Davidson diagonalization with overlap

---- Real-time Memory Report at c_bands before calling an iterative solver
          3356 MiB given to the printing process from OS
         -1912 MiB allocation reported by mallinfo(arena+hblkhd)
        178733 MiB available memory on the node where the printing process lives
------------------
     c_bands:  1 eigenvalues not converged
     ethr =  1.57E-05,  avg # of iterations =  2.2

     negative rho (up, down):  0.000E+00 1.388E-02

     total cpu time spent up to now is    18580.3 secs

     total energy              =  -42146.38140019 Ry
     estimated scf accuracy    <       0.31890218 Ry

     total magnetization       =   292.49 Bohr mag/cell
     absolute magnetization    =   312.51 Bohr mag/cell

     iteration # 13     ecut=    90.00 Ry     beta= 0.20
     Davidson diagonalization with overlap

---- Real-time Memory Report at c_bands before calling an iterative solver
          3356 MiB given to the printing process from OS
         -1912 MiB allocation reported by mallinfo(arena+hblkhd)
        178739 MiB available memory on the node where the printing process lives
------------------
     ethr =  1.56E-05,  avg # of iterations =  2.2

     negative rho (up, down):  0.000E+00 9.100E-03

     total cpu time spent up to now is    19997.7 secs

     total energy              =  -42146.40984309 Ry
     estimated scf accuracy    <       0.70502140 Ry

     total magnetization       =   288.55 Bohr mag/cell
     absolute magnetization    =   308.63 Bohr mag/cell

     iteration # 14     ecut=    90.00 Ry     beta= 0.20
     Davidson diagonalization with overlap

---- Real-time Memory Report at c_bands before calling an iterative solver
          3358 MiB given to the printing process from OS
         -1912 MiB allocation reported by mallinfo(arena+hblkhd)
        178768 MiB available memory on the node where the printing process lives
------------------
     ethr =  1.56E-05,  avg # of iterations =  3.8

     negative rho (up, down):  0.000E+00 9.216E-03

     total cpu time spent up to now is    21551.9 secs

     total energy              =  -42146.43733344 Ry
     estimated scf accuracy    <       0.08849822 Ry

     total magnetization       =   284.25 Bohr mag/cell
     absolute magnetization    =   303.28 Bohr mag/cell

     iteration # 15     ecut=    90.00 Ry     beta= 0.20
     Davidson diagonalization with overlap

---- Real-time Memory Report at c_bands before calling an iterative solver
          3358 MiB given to the printing process from OS
         -1912 MiB allocation reported by mallinfo(arena+hblkhd)
        178714 MiB available memory on the node where the printing process lives
------------------
     ethr =  4.32E-06,  avg # of iterations =  6.9

     negative rho (up, down):  0.000E+00 8.859E-03

     total cpu time spent up to now is    23182.4 secs

     total energy              =  -42146.43960483 Ry
     estimated scf accuracy    <       0.24537141 Ry

     total magnetization       =   284.91 Bohr mag/cell
     absolute magnetization    =   303.76 Bohr mag/cell

     iteration # 16     ecut=    90.00 Ry     beta= 0.20
     Davidson diagonalization with overlap

---- Real-time Memory Report at c_bands before calling an iterative solver
          3358 MiB given to the printing process from OS
         -1912 MiB allocation reported by mallinfo(arena+hblkhd)
        178681 MiB available memory on the node where the printing process lives
------------------
     ethr =  4.32E-06,  avg # of iterations =  2.9

     negative rho (up, down):  0.000E+00 8.644E-03

     total cpu time spent up to now is    24614.2 secs

     total energy              =  -42146.45206466 Ry
     estimated scf accuracy    <       0.04874623 Ry

     total magnetization       =   284.12 Bohr mag/cell
     absolute magnetization    =   302.78 Bohr mag/cell

     iteration # 17     ecut=    90.00 Ry     beta= 0.20
     Davidson diagonalization with overlap

---- Real-time Memory Report at c_bands before calling an iterative solver
          3358 MiB given to the printing process from OS
         -1912 MiB allocation reported by mallinfo(arena+hblkhd)
        178694 MiB available memory on the node where the printing process lives
------------------
     ethr =  2.38E-06,  avg # of iterations =  3.2

     negative rho (up, down):  0.000E+00 7.991E-03

     total cpu time spent up to now is    26084.8 secs

     total energy              =  -42146.46124870 Ry
     estimated scf accuracy    <       0.05759193 Ry

     total magnetization       =   284.24 Bohr mag/cell
     absolute magnetization    =   302.71 Bohr mag/cell

     iteration # 18     ecut=    90.00 Ry     beta= 0.20
     Davidson diagonalization with overlap

---- Real-time Memory Report at c_bands before calling an iterative solver
          3358 MiB given to the printing process from OS
         -1912 MiB allocation reported by mallinfo(arena+hblkhd)
        178661 MiB available memory on the node where the printing process lives
------------------
     ethr =  2.38E-06,  avg # of iterations =  2.2

     negative rho (up, down):  0.000E+00 7.734E-03

     total cpu time spent up to now is    27497.6 secs

     total energy              =  -42146.46851082 Ry
     estimated scf accuracy    <       0.02264751 Ry

     total magnetization       =   283.47 Bohr mag/cell
     absolute magnetization    =   301.63 Bohr mag/cell

     iteration # 19     ecut=    90.00 Ry     beta= 0.20
     Davidson diagonalization with overlap

---- Real-time Memory Report at c_bands before calling an iterative solver
          3358 MiB given to the printing process from OS
         -1912 MiB allocation reported by mallinfo(arena+hblkhd)
        178694 MiB available memory on the node where the printing process lives
------------------
     ethr =  1.11E-06,  avg # of iterations =  2.0

     negative rho (up, down):  0.000E+00 7.336E-03

     total cpu time spent up to now is    28935.8 secs

     total energy              =  -42146.47348453 Ry
     estimated scf accuracy    <       0.03397320 Ry

     total magnetization       =   283.75 Bohr mag/cell
     absolute magnetization    =   301.65 Bohr mag/cell

     iteration # 20     ecut=    90.00 Ry     beta= 0.20
     Davidson diagonalization with overlap

---- Real-time Memory Report at c_bands before calling an iterative solver
          3358 MiB given to the printing process from OS
         -1912 MiB allocation reported by mallinfo(arena+hblkhd)
        178651 MiB available memory on the node where the printing process lives
------------------
     ethr =  1.11E-06,  avg # of iterations =  1.5

     negative rho (up, down):  0.000E+00 7.049E-03

     total cpu time spent up to now is    30329.3 secs

     total energy              =  -42146.47949179 Ry
     estimated scf accuracy    <       0.01039203 Ry

     total magnetization       =   283.50 Bohr mag/cell
     absolute magnetization    =   301.16 Bohr mag/cell

     iteration # 21     ecut=    90.00 Ry     beta= 0.20
     Davidson diagonalization with overlap

---- Real-time Memory Report at c_bands before calling an iterative solver
          3358 MiB given to the printing process from OS
         -1912 MiB allocation reported by mallinfo(arena+hblkhd)
        178595 MiB available memory on the node where the printing process lives
------------------
     c_bands:  1 eigenvalues not converged
     ethr =  5.07E-07,  avg # of iterations =  2.7

     negative rho (up, down):  0.000E+00 6.224E-03

     total cpu time spent up to now is    31807.8 secs

     total energy              =  -42146.48281515 Ry
     estimated scf accuracy    <       0.02887008 Ry

     total magnetization       =   283.99 Bohr mag/cell
     absolute magnetization    =   301.33 Bohr mag/cell

     iteration # 22     ecut=    90.00 Ry     beta= 0.20
     Davidson diagonalization with overlap

---- Real-time Memory Report at c_bands before calling an iterative solver
          3358 MiB given to the printing process from OS
         -1912 MiB allocation reported by mallinfo(arena+hblkhd)
        178577 MiB available memory on the node where the printing process lives
------------------
     ethr =  5.07E-07,  avg # of iterations =  6.9

     negative rho (up, down):  0.000E+00 6.260E-03

     total cpu time spent up to now is    33473.7 secs

     total energy              =  -42146.48478397 Ry
     estimated scf accuracy    <       0.00604757 Ry

     total magnetization       =   283.63 Bohr mag/cell
     absolute magnetization    =   300.38 Bohr mag/cell

     iteration # 23     ecut=    90.00 Ry     beta= 0.20
     Davidson diagonalization with overlap

---- Real-time Memory Report at c_bands before calling an iterative solver
          3358 MiB given to the printing process from OS
         -1912 MiB allocation reported by mallinfo(arena+hblkhd)
        178581 MiB available memory on the node where the printing process lives
------------------
     ethr =  2.95E-07,  avg # of iterations =  2.0

     negative rho (up, down):  0.000E+00 6.325E-03

     total cpu time spent up to now is    34901.1 secs

     total energy              =  -42146.48459470 Ry
     estimated scf accuracy    <       0.01582229 Ry

     total magnetization       =   283.61 Bohr mag/cell
     absolute magnetization    =   300.33 Bohr mag/cell

     iteration # 24     ecut=    90.00 Ry     beta= 0.20
     Davidson diagonalization with overlap

---- Real-time Memory Report at c_bands before calling an iterative solver
          3358 MiB given to the printing process from OS
         -1912 MiB allocation reported by mallinfo(arena+hblkhd)
        178659 MiB available memory on the node where the printing process lives
------------------
     ethr =  2.95E-07,  avg # of iterations =  1.3

     negative rho (up, down):  0.000E+00 6.185E-03

     total cpu time spent up to now is    36226.9 secs

     total energy              =  -42146.48532797 Ry
     estimated scf accuracy    <       0.00701948 Ry

     total magnetization       =   283.66 Bohr mag/cell
     absolute magnetization    =   300.37 Bohr mag/cell

     iteration # 25     ecut=    90.00 Ry     beta= 0.20
     Davidson diagonalization with overlap

---- Real-time Memory Report at c_bands before calling an iterative solver
          3358 MiB given to the printing process from OS
         -1912 MiB allocation reported by mallinfo(arena+hblkhd)
        178630 MiB available memory on the node where the printing process lives
------------------
     ethr =  2.95E-07,  avg # of iterations =  1.0

     negative rho (up, down):  0.000E+00 6.199E-03

     total cpu time spent up to now is    37477.4 secs

     total energy              =  -42146.48556606 Ry
     estimated scf accuracy    <       0.00081431 Ry

     total magnetization       =   283.69 Bohr mag/cell
     absolute magnetization    =   300.29 Bohr mag/cell

     iteration # 26     ecut=    90.00 Ry     beta= 0.20
     Davidson diagonalization with overlap

---- Real-time Memory Report at c_bands before calling an iterative solver
          3358 MiB given to the printing process from OS
         -1912 MiB allocation reported by mallinfo(arena+hblkhd)
        178649 MiB available memory on the node where the printing process lives
------------------
     c_bands:  2 eigenvalues not converged
     ethr =  3.98E-08,  avg # of iterations =  2.5

     negative rho (up, down):  0.000E+00 6.164E-03

     total cpu time spent up to now is    38918.0 secs

     total energy              =  -42146.48561922 Ry
     estimated scf accuracy    <       0.00219656 Ry

     total magnetization       =   283.74 Bohr mag/cell
     absolute magnetization    =   300.28 Bohr mag/cell

     iteration # 27     ecut=    90.00 Ry     beta= 0.20
     Davidson diagonalization with overlap

---- Real-time Memory Report at c_bands before calling an iterative solver
          3358 MiB given to the printing process from OS
         -1912 MiB allocation reported by mallinfo(arena+hblkhd)
        178639 MiB available memory on the node where the printing process lives
------------------
     ethr =  3.98E-08,  avg # of iterations =  2.1

     negative rho (up, down):  0.000E+00 6.165E-03

     total cpu time spent up to now is    40349.7 secs

     total energy              =  -42146.48562506 Ry
     estimated scf accuracy    <       0.00217537 Ry

     total magnetization       =   283.77 Bohr mag/cell
     absolute magnetization    =   300.23 Bohr mag/cell

     iteration # 28     ecut=    90.00 Ry     beta= 0.20
     Davidson diagonalization with overlap

---- Real-time Memory Report at c_bands before calling an iterative solver
          3358 MiB given to the printing process from OS
         -1912 MiB allocation reported by mallinfo(arena+hblkhd)
        178620 MiB available memory on the node where the printing process lives
------------------
     ethr =  3.98E-08,  avg # of iterations =  1.4

     negative rho (up, down):  0.000E+00 6.221E-03

     total cpu time spent up to now is    41729.6 secs

     total energy              =  -42146.48570960 Ry
     estimated scf accuracy    <       0.00110733 Ry

     total magnetization       =   283.77 Bohr mag/cell
     absolute magnetization    =   300.23 Bohr mag/cell

     iteration # 29     ecut=    90.00 Ry     beta= 0.20
     Davidson diagonalization with overlap

---- Real-time Memory Report at c_bands before calling an iterative solver
          3358 MiB given to the printing process from OS
         -1912 MiB allocation reported by mallinfo(arena+hblkhd)
        178611 MiB available memory on the node where the printing process lives
------------------
     ethr =  3.98E-08,  avg # of iterations =  1.0

     negative rho (up, down):  0.000E+00 6.242E-03

     total cpu time spent up to now is    42972.8 secs

     total energy              =  -42146.48575366 Ry
     estimated scf accuracy    <       0.00005575 Ry

     total magnetization       =   283.85 Bohr mag/cell
     absolute magnetization    =   300.26 Bohr mag/cell

     iteration # 30     ecut=    90.00 Ry     beta= 0.20
     Davidson diagonalization with overlap

---- Real-time Memory Report at c_bands before calling an iterative solver
          3358 MiB given to the printing process from OS
         -1912 MiB allocation reported by mallinfo(arena+hblkhd)
        178613 MiB available memory on the node where the printing process lives
------------------
     ethr =  2.72E-09,  avg # of iterations =  4.4

     negative rho (up, down):  0.000E+00 6.276E-03

     total cpu time spent up to now is    44552.2 secs

     total energy              =  -42146.48575383 Ry
     estimated scf accuracy    <       0.00019662 Ry

     total magnetization       =   283.87 Bohr mag/cell
     absolute magnetization    =   300.26 Bohr mag/cell

     iteration # 31     ecut=    90.00 Ry     beta= 0.20
     Davidson diagonalization with overlap

---- Real-time Memory Report at c_bands before calling an iterative solver
          3358 MiB given to the printing process from OS
         -1912 MiB allocation reported by mallinfo(arena+hblkhd)
        178594 MiB available memory on the node where the printing process lives
------------------
     ethr =  2.72E-09,  avg # of iterations =  1.5

     negative rho (up, down):  0.000E+00 6.260E-03

     total cpu time spent up to now is    45951.8 secs

     total energy              =  -42146.48576290 Ry
     estimated scf accuracy    <       0.00001808 Ry

     total magnetization       =   283.89 Bohr mag/cell
     absolute magnetization    =   300.27 Bohr mag/cell

     iteration # 32     ecut=    90.00 Ry     beta= 0.20
     Davidson diagonalization with overlap

---- Real-time Memory Report at c_bands before calling an iterative solver
          3358 MiB given to the printing process from OS
         -1912 MiB allocation reported by mallinfo(arena+hblkhd)
        178591 MiB available memory on the node where the printing process lives
------------------
     ethr =  8.83E-10,  avg # of iterations =  2.4

     negative rho (up, down):  0.000E+00 6.278E-03

     total cpu time spent up to now is    47411.9 secs

     total energy              =  -42146.48576576 Ry
     estimated scf accuracy    <       0.00003108 Ry

     total magnetization       =   283.88 Bohr mag/cell
     absolute magnetization    =   300.25 Bohr mag/cell

     iteration # 33     ecut=    90.00 Ry     beta= 0.20
     Davidson diagonalization with overlap

---- Real-time Memory Report at c_bands before calling an iterative solver
          3358 MiB given to the printing process from OS
         -1912 MiB allocation reported by mallinfo(arena+hblkhd)
        178617 MiB available memory on the node where the printing process lives
------------------
     ethr =  8.83E-10,  avg # of iterations =  1.2

     negative rho (up, down):  0.000E+00 6.283E-03

     total cpu time spent up to now is    48734.0 secs

     total energy              =  -42146.48576601 Ry
     estimated scf accuracy    <       0.00002294 Ry

     total magnetization       =   283.89 Bohr mag/cell
     absolute magnetization    =   300.25 Bohr mag/cell

     iteration # 34     ecut=    90.00 Ry     beta= 0.20
     Davidson diagonalization with overlap

---- Real-time Memory Report at c_bands before calling an iterative solver
          3358 MiB given to the printing process from OS
         -1912 MiB allocation reported by mallinfo(arena+hblkhd)
        178621 MiB available memory on the node where the printing process lives
------------------
     ethr =  8.83E-10,  avg # of iterations =  1.0

     negative rho (up, down):  0.000E+00 6.280E-03

     total cpu time spent up to now is    49980.3 secs

     total energy              =  -42146.48576745 Ry
     estimated scf accuracy    <       0.00000626 Ry

     total magnetization       =   283.88 Bohr mag/cell
     absolute magnetization    =   300.25 Bohr mag/cell

     iteration # 35     ecut=    90.00 Ry     beta= 0.20
     Davidson diagonalization with overlap

---- Real-time Memory Report at c_bands before calling an iterative solver
          3358 MiB given to the printing process from OS
         -1912 MiB allocation reported by mallinfo(arena+hblkhd)
        178586 MiB available memory on the node where the printing process lives
------------------
     ethr =  3.06E-10,  avg # of iterations =  1.2

     negative rho (up, down):  0.000E+00 6.283E-03

     total cpu time spent up to now is    51313.2 secs

     total energy              =  -42146.48576837 Ry
     estimated scf accuracy    <       0.00000547 Ry

     total magnetization       =   283.89 Bohr mag/cell
     absolute magnetization    =   300.25 Bohr mag/cell

     iteration # 36     ecut=    90.00 Ry     beta= 0.20
     Davidson diagonalization with overlap

---- Real-time Memory Report at c_bands before calling an iterative solver
          3358 MiB given to the printing process from OS
         -1912 MiB allocation reported by mallinfo(arena+hblkhd)
        178629 MiB available memory on the node where the printing process lives
------------------
     ethr =  2.67E-10,  avg # of iterations =  1.1

     negative rho (up, down):  0.000E+00 6.289E-03

     total cpu time spent up to now is    52579.9 secs

     total energy              =  -42146.48576968 Ry
     estimated scf accuracy    <       0.00000792 Ry

     total magnetization       =   283.89 Bohr mag/cell
     absolute magnetization    =   300.24 Bohr mag/cell

     iteration # 37     ecut=    90.00 Ry     beta= 0.20
     Davidson diagonalization with overlap

---- Real-time Memory Report at c_bands before calling an iterative solver
          3358 MiB given to the printing process from OS
         -1912 MiB allocation reported by mallinfo(arena+hblkhd)
        178628 MiB available memory on the node where the printing process lives
------------------
     ethr =  2.67E-10,  avg # of iterations =  1.6

     negative rho (up, down):  0.000E+00 6.292E-03

     total cpu time spent up to now is    53984.5 secs

     total energy              =  -42146.48577086 Ry
     estimated scf accuracy    <       0.00000660 Ry

     total magnetization       =   283.88 Bohr mag/cell
     absolute magnetization    =   300.23 Bohr mag/cell

     iteration # 38     ecut=    90.00 Ry     beta= 0.20
     Davidson diagonalization with overlap

---- Real-time Memory Report at c_bands before calling an iterative solver
          3358 MiB given to the printing process from OS
         -1912 MiB allocation reported by mallinfo(arena+hblkhd)
[...]
     atom   86 type  1   force =     0.00000000    0.00000000    0.00000000
     atom   87 type  1   force =     0.00000000    0.00000000    0.00000000
     atom   88 type  1   force =     0.00000000    0.00000000    0.00000000
     atom   89 type  1   force =     0.00000000    0.00000000    0.00000000
     atom   90 type  1   force =     0.00000000    0.00000000    0.00000000
     atom   91 type  1   force =     0.00000000    0.00000000    0.00000000
     atom   92 type  1   force =     0.00000000    0.00000000    0.00000000
     atom   93 type  1   force =     0.00000000    0.00000000    0.00000000
     atom   94 type  1   force =     0.00000000    0.00000000    0.00000000
     atom   95 type  1   force =     0.00000000    0.00000000    0.00000000
     atom   96 type  1   force =     0.00000000    0.00000000    0.00000000
     atom   97 type  1   force =     0.00000000    0.00000000    0.00000000
     atom   98 type  1   force =     0.00000000    0.00000000    0.00000000
     atom   99 type  1   force =     0.00000000    0.00000000    0.00000000
     atom  100 type  1   force =     0.00000000    0.00000000    0.00000000
     atom  101 type  1   force =     0.00000000    0.00000000    0.00000000
     atom  102 type  1   force =     0.00000000    0.00000000    0.00000000
     atom  103 type  1   force =     0.00000000    0.00000000    0.00000000
     atom  104 type  1   force =     0.00000000    0.00000000    0.00000000
     atom  105 type  1   force =     0.00000000    0.00000000    0.00000000
     atom  106 type  1   force =     0.00000000    0.00000000    0.00000000
     atom  107 type  1   force =     0.00000000    0.00000000    0.00000000
     atom  108 type  1   force =     0.00000000    0.00000000    0.00000000
     atom  109 type  1   force =     0.00000000    0.00000000    0.00000000
     atom  110 type  1   force =     0.00000000    0.00000000    0.00000000
     atom  111 type  1   force =     0.00000000    0.00000000    0.00000000
     atom  112 type  1   force =     0.00000000    0.00000000    0.00000000
     atom  113 type  1   force =     0.00000000    0.00000000    0.00000000
     atom  114 type  1   force =     0.00000000    0.00000000    0.00000000
     atom  115 type  1   force =     0.00000000    0.00000000    0.00000000
     atom  116 type  1   force =     0.00000000    0.00000000    0.00000000
     atom  117 type  1   force =     0.00000000    0.00000000    0.00000000
     atom  118 type  1   force =     0.00000000    0.00000000    0.00000000
     atom  119 type  1   force =     0.00000000    0.00000000    0.00000000
     atom  120 type  1   force =     0.00000000    0.00000000    0.00000000
     atom  121 type  1   force =     0.00000000    0.00000000    0.00000000
     atom  122 type  1   force =     0.00000000    0.00000000    0.00000000
     atom  123 type  1   force =     0.00000000    0.00000000    0.00000000
     atom  124 type  1   force =     0.00000000    0.00000000    0.00000000
     atom  125 type  1   force =     0.00000000    0.00000000    0.00000000
     atom  126 type  1   force =     0.00000000    0.00000000    0.00000000
     atom  127 type  1   force =     0.00000000    0.00000000    0.00000000
     atom  128 type  1   force =     0.00000000    0.00000000    0.00000000
     The SCF correction term to forces
     atom    1 type  1   force =    -0.00000000    0.00000000    0.00000000
     atom    2 type  1   force =     0.00005966    0.00005966    0.00005966
     atom    3 type  1   force =     0.00000000    0.00000000    0.00018067
     atom    4 type  1   force =     0.00000567    0.00000567    0.00002537
     atom    5 type  1   force =    -0.00000000    0.00000000    0.00000000
     atom    6 type  1   force =     0.00000567    0.00000567   -0.00002537
     atom    7 type  1   force =    -0.00000000    0.00000000   -0.00018067
     atom    8 type  1   force =     0.00005966    0.00005966   -0.00005966
     atom    9 type  1   force =    -0.00000000    0.00018067    0.00000000
     atom   10 type  1   force =     0.00000567    0.00002537    0.00000567
     atom   11 type  1   force =     0.00000000    0.00006805    0.00006805
     atom   12 type  1   force =    -0.00003365   -0.00005903   -0.00005903
     atom   13 type  1   force =    -0.00000000   -0.00002761    0.00000000
     atom   14 type  1   force =    -0.00003365   -0.00005903    0.00005903
     atom   15 type  1   force =    -0.00000000    0.00006805   -0.00006805
     atom   16 type  1   force =     0.00000567    0.00002537   -0.00000567
     atom   17 type  1   force =    -0.00000000    0.00000000    0.00000000
     atom   18 type  1   force =     0.00000567   -0.00002537    0.00000567
     atom   19 type  1   force =     0.00000000    0.00000000   -0.00002761
     atom   20 type  1   force =    -0.00003365    0.00005903   -0.00005903
     atom   21 type  1   force =    -0.00000000   -0.00000000    0.00000000
     atom   22 type  1   force =    -0.00003365    0.00005903    0.00005903
     atom   23 type  1   force =    -0.00000000   -0.00000000    0.00002761
     atom   24 type  1   force =     0.00000567   -0.00002537   -0.00000567
     atom   25 type  1   force =    -0.00000000   -0.00018067    0.00000000
     atom   26 type  1   force =     0.00005966   -0.00005966    0.00005966
     atom   27 type  1   force =     0.00000000   -0.00006805    0.00006805
     atom   28 type  1   force =     0.00000567   -0.00000567    0.00002537
     atom   29 type  1   force =    -0.00000000    0.00002761    0.00000000
     atom   30 type  1   force =     0.00000567   -0.00000567   -0.00002537
     atom   31 type  1   force =    -0.00000000   -0.00006805   -0.00006805
     atom   32 type  1   force =     0.00005966   -0.00005966   -0.00005966
     atom   33 type  1   force =     0.00018067    0.00000000    0.00000000
     atom   34 type  1   force =     0.00002537    0.00000567    0.00000567
     atom   35 type  1   force =     0.00006805   -0.00000000    0.00006805
     atom   36 type  1   force =    -0.00005903   -0.00003365   -0.00005903
     atom   37 type  1   force =    -0.00002761   -0.00000000    0.00000000
     atom   38 type  1   force =    -0.00005903   -0.00003365    0.00005903
     atom   39 type  1   force =     0.00006805   -0.00000000   -0.00006805
     atom   40 type  1   force =     0.00002537    0.00000567   -0.00000567
     atom   41 type  1   force =     0.00006805    0.00006805    0.00000000
     atom   42 type  1   force =    -0.00005903   -0.00005903   -0.00003365
     atom   43 type  1   force =     0.00001012    0.00001012    0.00001012
     atom   44 type  1   force =    -0.00016916   -0.00016916   -0.00016916
     atom   45 type  1   force =    -0.00008674   -0.00008674    0.00000000
     atom   46 type  1   force =    -0.00016916   -0.00016916    0.00016916
     atom   47 type  1   force =     0.00001012    0.00001012   -0.00001012
     atom   48 type  1   force =    -0.00005903   -0.00005903    0.00003365
     atom   49 type  1   force =    -0.00002761    0.00000000    0.00000000
     atom   50 type  1   force =    -0.00005903    0.00005903   -0.00003365
     atom   51 type  1   force =    -0.00008674   -0.00000000   -0.00008674
     atom   52 type  1   force =    -0.00016916    0.00016916   -0.00016916
     atom   53 type  1   force =    -0.00019813    0.00000000    0.00000000
     atom   54 type  1   force =    -0.00016916    0.00016916    0.00016916
     atom   55 type  1   force =    -0.00008674   -0.00000000    0.00008674
     atom   56 type  1   force =    -0.00005903    0.00005903    0.00003365
     atom   57 type  1   force =     0.00006805   -0.00006805    0.00000000
     atom   58 type  1   force =     0.00002537   -0.00000567    0.00000567
     atom   59 type  1   force =     0.00001012   -0.00001012    0.00001012
     atom   60 type  1   force =    -0.00005903    0.00003365   -0.00005903
     atom   61 type  1   force =    -0.00008674    0.00008674    0.00000000
     atom   62 type  1   force =    -0.00005903    0.00003365    0.00005903
     atom   63 type  1   force =     0.00001012   -0.00001012   -0.00001012
     atom   64 type  1   force =     0.00002537   -0.00000567   -0.00000567
     atom   65 type  1   force =    -0.00000000    0.00000000    0.00000000
     atom   66 type  1   force =    -0.00002537    0.00000567    0.00000567
     atom   67 type  1   force =     0.00000000   -0.00000000   -0.00002761
     atom   68 type  1   force =     0.00005903   -0.00003365   -0.00005903
     atom   69 type  1   force =    -0.00000000    0.00000000    0.00000000
     atom   70 type  1   force =     0.00005903   -0.00003365    0.00005903
     atom   71 type  1   force =     0.00000000    0.00000000    0.00002761
     atom   72 type  1   force =    -0.00002537    0.00000567   -0.00000567
     atom   73 type  1   force =    -0.00000000   -0.00002761    0.00000000
     atom   74 type  1   force =     0.00005903   -0.00005903   -0.00003365
     atom   75 type  1   force =     0.00000000   -0.00008674   -0.00008674
     atom   76 type  1   force =     0.00016916   -0.00016916   -0.00016916
     atom   77 type  1   force =    -0.00000000   -0.00019813   -0.00000000
     atom   78 type  1   force =     0.00016916   -0.00016916    0.00016916
     atom   79 type  1   force =     0.00000000   -0.00008674    0.00008674
     atom   80 type  1   force =     0.00005903   -0.00005903    0.00003365
     atom   81 type  1   force =     0.00000000   -0.00000000    0.00000000
     atom   82 type  1   force =     0.00005903    0.00005903   -0.00003365
     atom   83 type  1   force =     0.00000000   -0.00000000   -0.00019813
     atom   84 type  1   force =     0.00016916    0.00016916   -0.00016916
     atom   85 type  1   force =     0.00000000    0.00000000   -0.00000000
     atom   86 type  1   force =     0.00016916    0.00016916    0.00016916
     atom   87 type  1   force =     0.00000000   -0.00000000    0.00019813
     atom   88 type  1   force =     0.00005903    0.00005903    0.00003365
     atom   89 type  1   force =    -0.00000000    0.00002761    0.00000000
     atom   90 type  1   force =    -0.00002537   -0.00000567    0.00000567
     atom   91 type  1   force =     0.00000000    0.00008674   -0.00008674
     atom   92 type  1   force =     0.00005903    0.00003365   -0.00005903
     atom   93 type  1   force =    -0.00000000    0.00019813   -0.00000000
     atom   94 type  1   force =     0.00005903    0.00003365    0.00005903
     atom   95 type  1   force =     0.00000000    0.00008674    0.00008674
     atom   96 type  1   force =    -0.00002537   -0.00000567   -0.00000567
     atom   97 type  1   force =    -0.00018067    0.00000000    0.00000000
     atom   98 type  1   force =    -0.00005966    0.00005966    0.00005966
     atom   99 type  1   force =    -0.00006805   -0.00000000    0.00006805
     atom  100 type  1   force =    -0.00000567    0.00000567    0.00002537
     atom  101 type  1   force =     0.00002761   -0.00000000    0.00000000
     atom  102 type  1   force =    -0.00000567    0.00000567   -0.00002537
     atom  103 type  1   force =    -0.00006805    0.00000000   -0.00006805
     atom  104 type  1   force =    -0.00005966    0.00005966   -0.00005966
     atom  105 type  1   force =    -0.00006805    0.00006805    0.00000000
     atom  106 type  1   force =    -0.00000567    0.00002537    0.00000567
     atom  107 type  1   force =    -0.00001012    0.00001012    0.00001012
     atom  108 type  1   force =     0.00003365   -0.00005903   -0.00005903
     atom  109 type  1   force =     0.00008674   -0.00008674    0.00000000
     atom  110 type  1   force =     0.00003365   -0.00005903    0.00005903
     atom  111 type  1   force =    -0.00001012    0.00001012   -0.00001012
     atom  112 type  1   force =    -0.00000567    0.00002537   -0.00000567
     atom  113 type  1   force =     0.00002761    0.00000000    0.00000000
     atom  114 type  1   force =    -0.00000567   -0.00002537    0.00000567
     atom  115 type  1   force =     0.00008674   -0.00000000   -0.00008674
     atom  116 type  1   force =     0.00003365    0.00005903   -0.00005903
     atom  117 type  1   force =     0.00019813   -0.00000000    0.00000000
     atom  118 type  1   force =     0.00003365    0.00005903    0.00005903
     atom  119 type  1   force =     0.00008674   -0.00000000    0.00008674
     atom  120 type  1   force =    -0.00000567   -0.00002537   -0.00000567
     atom  121 type  1   force =    -0.00006805   -0.00006805    0.00000000
     atom  122 type  1   force =    -0.00005966   -0.00005966    0.00005966
     atom  123 type  1   force =    -0.00001012   -0.00001012    0.00001012
     atom  124 type  1   force =    -0.00000567   -0.00000567    0.00002537
     atom  125 type  1   force =     0.00008674    0.00008674    0.00000000
     atom  126 type  1   force =    -0.00000567   -0.00000567   -0.00002537
     atom  127 type  1   force =    -0.00001012   -0.00001012   -0.00001012
     atom  128 type  1   force =    -0.00005966   -0.00005966   -0.00005966

     Total force =     0.000130     Total SCF correction =     0.001311
     SCF correction compared to forces is large: reduce conv_thr to get better values


     Computing stress (Cartesian axis) and pressure


     negative rho (up, down):  0.000E+00 6.283E-03
          total   stress  (Ry/bohr**3)                   (kbar)     P=      -72.36
  -0.00049188   0.00000000   0.00000000          -72.36        0.00        0.00
   0.00000000  -0.00049188   0.00000000            0.00      -72.36        0.00
   0.00000000   0.00000000  -0.00049188            0.00        0.00      -72.36

     kinetic stress (kbar)  95424.09      0.00      0.00
                                0.00  95424.09      0.00
                                0.00      0.00  95424.09

     local   stress (kbar)  12107.70     -0.00     -0.00
                               -0.00  12107.70      0.00
                               -0.00      0.00  12107.70

     nonloc. stress (kbar) -26162.77      0.00      0.00
                                0.00 -26162.77      0.00
                                0.00      0.00 -26162.77

     hartree stress (kbar)  40798.16      0.00     -0.00
                                0.00  40798.16     -0.00
                               -0.00     -0.00  40798.16

     exc-cor stress (kbar) -13739.78     -0.00     -0.00
                               -0.00 -13739.78     -0.00
                               -0.00     -0.00 -13739.78

     corecor stress (kbar)  -2619.83      0.00      0.00
                                0.00  -2619.83      0.00
                                0.00      0.00  -2619.83

     ewald   stress (kbar)-105879.93     -0.00      0.00
                               -0.00-105879.93     -0.00
                                0.00     -0.00-105879.93

     hubbard stress (kbar)      0.00      0.00      0.00
                                0.00      0.00      0.00
                                0.00      0.00      0.00

     DFT-D   stress (kbar)      0.00      0.00      0.00
                                0.00      0.00      0.00
                                0.00      0.00      0.00

     XDM     stress (kbar)      0.00      0.00      0.00
                                0.00      0.00      0.00
                                0.00      0.00      0.00

     dft-nl  stress (kbar)      0.00      0.00      0.00
                                0.00      0.00      0.00
                                0.00      0.00      0.00

     TS-vdW  stress (kbar)      0.00      0.00      0.00
                                0.00      0.00      0.00
                                0.00      0.00      0.00

     MDB     stress (kbar)      0.00      0.00      0.00
                                0.00      0.00      0.00
                                0.00      0.00      0.00

     3D-RISM stress (kbar)      0.00      0.00      0.00
                                0.00      0.00      0.00
                                0.00      0.00      0.00

     Message from routine punch:
     Nothing written, as per user request (disk_io='none')

     init_run     :    423.68s CPU    440.59s WALL (       1 calls)
     electrons    :  64433.94s CPU  68729.37s WALL (       1 calls)
     forces       :    271.37s CPU    285.01s WALL (       1 calls)
     stress       :   6557.98s CPU   6722.76s WALL (       1 calls)

     Called by init_run:
     wfcinit      :    414.47s CPU    430.59s WALL (       1 calls)
     wfcinit:atom :      0.92s CPU      1.97s WALL (      18 calls)
     wfcinit:wfcr :    404.56s CPU    417.20s WALL (      18 calls)
     potinit      :      2.04s CPU      2.32s WALL (       1 calls)
     hinit0       :      2.42s CPU      2.52s WALL (       1 calls)

     Called by electrons:
     c_bands      :  56000.26s CPU  59847.08s WALL (      48 calls)
     sum_band     :   8301.94s CPU   8690.20s WALL (      48 calls)
     v_of_rho     :     61.88s CPU     77.30s WALL (      49 calls)
     v_h          :      1.86s CPU      2.16s WALL (      49 calls)
     v_xc         :     62.54s CPU     78.22s WALL (      51 calls)
     newd         :     34.67s CPU     74.76s WALL (      49 calls)
     PAW_pot      :     23.43s CPU     25.07s WALL (      49 calls)
     mix_rho      :      4.64s CPU      5.90s WALL (      48 calls)

     Called by c_bands:
     init_us_2    :    381.75s CPU    389.31s WALL (    1782 calls)
     cegterg      :  52615.86s CPU  55907.26s WALL (     864 calls)

     Called by sum_band:
     sum_band:wei :      1.12s CPU      1.20s WALL (      48 calls)
     sum_band:loo :   8114.11s CPU   8423.45s WALL (      48 calls)
     sum_band:buf :     62.85s CPU     69.83s WALL (     864 calls)
     sum_band:ini :    136.60s CPU    138.23s WALL (     864 calls)
     sum_band:cal :   3033.86s CPU   3164.41s WALL (     864 calls)
     sum_band:bec :     47.46s CPU     48.05s WALL (     864 calls)
     addusdens    :     36.42s CPU     84.12s WALL (      48 calls)
                                        0.00s GPU  (      48 calls)
     addusd:skk   :      0.93s CPU     12.18s WALL (      48 calls)
                                        0.00s GPU  (      48 calls)

     Called by *egterg:
     cdiaghg      :   2949.64s CPU   3257.11s WALL (    3082 calls)
     cegterg:over :   5892.97s CPU   6132.58s WALL (    2218 calls)
     cegterg:upda :   3377.69s CPU   3591.87s WALL (    2218 calls)
     cegterg:last :   7820.28s CPU   8200.52s WALL (    1398 calls)
     cdiaghg:chol :    240.79s CPU    276.32s WALL (    3082 calls)
     cdiaghg:inve :    280.40s CPU    330.80s WALL (    3082 calls)
     cdiaghg:para :    659.87s CPU    744.93s WALL (    6164 calls)
     h_psi        :  24880.23s CPU  25993.38s WALL (    3100 calls)
     s_psi        :   5695.23s CPU   5846.56s WALL (    3100 calls)
     g_psi        :     35.78s CPU     36.68s WALL (    2218 calls)

     Called by h_psi:
     h_psi:calbec :   6325.27s CPU   6558.45s WALL (    3100 calls)
     vloc_psi     :  12813.97s CPU  13240.82s WALL (    3100 calls)
     add_vuspsi   :   5713.64s CPU   5885.95s WALL (    3100 calls)

     General routines
     calbec       :   9818.47s CPU  10217.72s WALL (    4054 calls)
     fft          :     36.92s CPU     45.60s WALL (    1263 calls)
     ffts         :      1.32s CPU      1.83s WALL (     194 calls)
     fftw         :   8852.55s CPU   9309.36s WALL ( 5464072 calls)
     interpolate  :      4.39s CPU      5.35s WALL (      98 calls)

     Parallel routines

     PAW routines
     PAW_pot      :     23.43s CPU     25.07s WALL (      49 calls)
     PAW_symme    :      1.24s CPU      1.53s WALL (      97 calls)

     PWSCF        :  71687.46s CPU  76179.25s WALL


   This run was terminated on:  10:49:39  25May2025            

=------------------------------------------------------------------------------=
   JOB DONE.
=------------------------------------------------------------------------------=
