
     Program PWSCF v.7.3.1 starts on 24May2025 at 11:17:19 

     This program is part of the open-source Quantum ESPRESSO suite
     for quantum simulation of materials; please cite
         "P. Giannozzi et al., J. Phys.:Condens. Matter 21 395502 (2009);
         "P. Giannozzi et al., J. Phys.:Condens. Matter 29 465901 (2017);
         "P. Giannozzi et al., J. Chem. Phys. 152 154105 (2020);
          URL http://www.quantum-espresso.org", 
     in publications or presentations arising from this work. More details at
     http://www.quantum-espresso.org/quote

     Parallel version (MPI & OpenMP), running on       8 processor cores
     Number of MPI processes:                 8
     Threads/MPI process:                     1

     MPI processes distributed on     1 nodes
     446569 MiB available memory on the printing compute node when the environment starts

     Waiting for input...
     Reading input from standard input

     Current dimensions of program PWSCF are:
     Max number of different atomic species (ntypx) = 10
     Max number of k-points (npk) =  40000
     Max angular momentum in pseudopotentials (lmaxx) =  4
     file Fe.pbe-spn-kjpaw_psl.1.0.0.UPF: wavefunction(s)  3P 3D renormalized
     Found identity + ( -0.5000 -0.5000 -0.5000) symmetry
     This is a supercell, fractional translations are disabled
     Message from routine setup:
     using ibrav=0 with symmetry is DISCOURAGED, use correct ibrav instead

     R & G space division:  proc/nbgrp/npool/nimage =       8
     Subspace diagonalization in iterative solution of the eigenvalue problem:
     a serial algorithm will be used


     Parallelization info
     --------------------
     sticks:   dense  smooth     PW     G-vecs:    dense   smooth      PW
     Min         317     105     31                11929     2289     383
     Max         318     106     32                11930     2292     386
     Sum        2537     845    253                95433    18325    3071

     Using Slab Decomposition



     bravais-lattice index     =            0
     lattice parameter (alat)  =       5.4199  a.u.
     unit-cell volume          =     159.2133 (a.u.)^3
     number of atoms/cell      =            2
     number of atomic types    =            1
     number of electrons       =        32.00
     number of Kohn-Sham states=           20
     kinetic-energy cutoff     =      90.0000  Ry
     charge density cutoff     =    1080.0000  Ry
     scf convergence threshold =      1.0E-08
     mixing beta               =       0.2000
     number of iterations used =            8  plain     mixing
     Exchange-correlation= SLA  PW   PBX  PBC
                           (   1   4   3   4   0   0   0)

     celldm(1)=   5.419923  celldm(2)=   0.000000  celldm(3)=   0.000000
     celldm(4)=   0.000000  celldm(5)=   0.000000  celldm(6)=   0.000000

     crystal axes: (cart. coord. in units of alat)
               a(1) = (   1.000000   0.000000   0.000000 )  
               a(2) = (   0.000000   1.000000   0.000000 )  
               a(3) = (   0.000000   0.000000   1.000000 )  

     reciprocal axes: (cart. coord. in units 2 pi/alat)
               b(1) = (  1.000000  0.000000  0.000000 )  
               b(2) = (  0.000000  1.000000  0.000000 )  
               b(3) = (  0.000000  0.000000  1.000000 )  


     PseudoPot. # 1 for Fe read from file:
     ./pseudo/Fe.pbe-spn-kjpaw_psl.1.0.0.UPF
     MD5 check sum: fc81f059e5c5069939230b1155715ae8
     Pseudo is Projector augmented-wave + core cor, Zval = 16.0
     Generated using &quot;atomic&quot; code by A. Dal Corso  v.6.3
     Shape of augmentation charge: PSQ
     Using radial grid of 1191 points,  6 beta functions with: 
                l(1) =   0
                l(2) =   0
                l(3) =   1
                l(4) =   1
                l(5) =   2
                l(6) =   2
     Q(r) pseudized with 0 coefficients 


     atomic species   valence    mass     pseudopotential
     Fe               16.00    55.84500     Fe( 1.00)

     Starting magnetic structure 
     atomic species   magnetization
     Fe              0.400

     48 Sym. Ops., with inversion, found


                                    s                        frac. trans.

      isym =  1     identity                                     

 cryst.   s( 1) = (     1          0          0      )
                  (     0          1          0      )
                  (     0          0          1      )

 cart.    s( 1) = (  1.0000000  0.0000000  0.0000000 )
                  (  0.0000000  1.0000000  0.0000000 )
                  (  0.0000000  0.0000000  1.0000000 )


      isym =  2     180 deg rotation - cart. axis [0,0,1]        

 cryst.   s( 2) = (    -1          0          0      )
                  (     0         -1          0      )
                  (     0          0          1      )

 cart.    s( 2) = ( -1.0000000  0.0000000  0.0000000 )
                  (  0.0000000 -1.0000000  0.0000000 )
                  (  0.0000000  0.0000000  1.0000000 )


      isym =  3     180 deg rotation - cart. axis [0,1,0]        

 cryst.   s( 3) = (    -1          0          0      )
                  (     0          1          0      )
                  (     0          0         -1      )

 cart.    s( 3) = ( -1.0000000  0.0000000  0.0000000 )
                  (  0.0000000  1.0000000  0.0000000 )
                  (  0.0000000  0.0000000 -1.0000000 )


      isym =  4     180 deg rotation - cart. axis [1,0,0]        

 cryst.   s( 4) = (     1          0          0      )
                  (     0         -1          0      )
                  (     0          0         -1      )

 cart.    s( 4) = (  1.0000000  0.0000000  0.0000000 )
                  (  0.0000000 -1.0000000  0.0000000 )
                  (  0.0000000  0.0000000 -1.0000000 )


      isym =  5     180 deg rotation - cart. axis [1,1,0]        

 cryst.   s( 5) = (     0          1          0      )
                  (     1          0          0      )
                  (     0          0         -1      )

 cart.    s( 5) = (  0.0000000  1.0000000  0.0000000 )
                  (  1.0000000  0.0000000  0.0000000 )
                  (  0.0000000  0.0000000 -1.0000000 )


      isym =  6     180 deg rotation - cart. axis [1,-1,0]       

 cryst.   s( 6) = (     0         -1          0      )
                  (    -1          0          0      )
                  (     0          0         -1      )

 cart.    s( 6) = (  0.0000000 -1.0000000  0.0000000 )
                  ( -1.0000000  0.0000000  0.0000000 )
                  (  0.0000000  0.0000000 -1.0000000 )


      isym =  7      90 deg rotation - cart. axis [0,0,-1]       

 cryst.   s( 7) = (     0         -1          0      )
                  (     1          0          0      )
                  (     0          0          1      )

 cart.    s( 7) = (  0.0000000  1.0000000  0.0000000 )
                  ( -1.0000000  0.0000000  0.0000000 )
                  (  0.0000000  0.0000000  1.0000000 )


      isym =  8      90 deg rotation - cart. axis [0,0,1]        

 cryst.   s( 8) = (     0          1          0      )
                  (    -1          0          0      )
                  (     0          0          1      )

 cart.    s( 8) = (  0.0000000 -1.0000000  0.0000000 )
                  (  1.0000000  0.0000000  0.0000000 )
                  (  0.0000000  0.0000000  1.0000000 )


      isym =  9     180 deg rotation - cart. axis [1,0,1]        

 cryst.   s( 9) = (     0          0          1      )
                  (     0         -1          0      )
                  (     1          0          0      )

 cart.    s( 9) = (  0.0000000  0.0000000  1.0000000 )
                  (  0.0000000 -1.0000000  0.0000000 )
                  (  1.0000000  0.0000000  0.0000000 )


      isym = 10     180 deg rotation - cart. axis [-1,0,1]       

 cryst.   s(10) = (     0          0         -1      )
                  (     0         -1          0      )
                  (    -1          0          0      )

 cart.    s(10) = (  0.0000000  0.0000000 -1.0000000 )
                  (  0.0000000 -1.0000000  0.0000000 )
                  ( -1.0000000  0.0000000  0.0000000 )


      isym = 11      90 deg rotation - cart. axis [0,1,0]        

 cryst.   s(11) = (     0          0         -1      )
                  (     0          1          0      )
                  (     1          0          0      )

 cart.    s(11) = (  0.0000000  0.0000000  1.0000000 )
                  (  0.0000000  1.0000000  0.0000000 )
                  ( -1.0000000  0.0000000  0.0000000 )


      isym = 12      90 deg rotation - cart. axis [0,-1,0]       

 cryst.   s(12) = (     0          0          1      )
                  (     0          1          0      )
                  (    -1          0          0      )

 cart.    s(12) = (  0.0000000  0.0000000 -1.0000000 )
                  (  0.0000000  1.0000000  0.0000000 )
                  (  1.0000000  0.0000000  0.0000000 )


      isym = 13     180 deg rotation - cart. axis [0,1,1]        

 cryst.   s(13) = (    -1          0          0      )
                  (     0          0          1      )
                  (     0          1          0      )

 cart.    s(13) = ( -1.0000000  0.0000000  0.0000000 )
                  (  0.0000000  0.0000000  1.0000000 )
                  (  0.0000000  1.0000000  0.0000000 )


      isym = 14     180 deg rotation - cart. axis [0,1,-1]       

 cryst.   s(14) = (    -1          0          0      )
                  (     0          0         -1      )
                  (     0         -1          0      )

 cart.    s(14) = ( -1.0000000  0.0000000  0.0000000 )
                  (  0.0000000  0.0000000 -1.0000000 )
                  (  0.0000000 -1.0000000  0.0000000 )


      isym = 15      90 deg rotation - cart. axis [-1,0,0]       

 cryst.   s(15) = (     1          0          0      )
                  (     0          0         -1      )
                  (     0          1          0      )

 cart.    s(15) = (  1.0000000  0.0000000  0.0000000 )
                  (  0.0000000  0.0000000  1.0000000 )
                  (  0.0000000 -1.0000000  0.0000000 )


      isym = 16      90 deg rotation - cart. axis [1,0,0]        

 cryst.   s(16) = (     1          0          0      )
                  (     0          0          1      )
                  (     0         -1          0      )

 cart.    s(16) = (  1.0000000  0.0000000  0.0000000 )
                  (  0.0000000  0.0000000 -1.0000000 )
                  (  0.0000000  1.0000000  0.0000000 )


      isym = 17     120 deg rotation - cart. axis [-1,-1,-1]     

 cryst.   s(17) = (     0          0          1      )
                  (     1          0          0      )
                  (     0          1          0      )

 cart.    s(17) = (  0.0000000  1.0000000  0.0000000 )
                  (  0.0000000  0.0000000  1.0000000 )
                  (  1.0000000  0.0000000  0.0000000 )


      isym = 18     120 deg rotation - cart. axis [-1,1,1]       

 cryst.   s(18) = (     0          0         -1      )
                  (    -1          0          0      )
                  (     0          1          0      )

 cart.    s(18) = (  0.0000000 -1.0000000  0.0000000 )
                  (  0.0000000  0.0000000  1.0000000 )
                  ( -1.0000000  0.0000000  0.0000000 )


      isym = 19     120 deg rotation - cart. axis [1,1,-1]       

 cryst.   s(19) = (     0          0         -1      )
                  (     1          0          0      )
                  (     0         -1          0      )

 cart.    s(19) = (  0.0000000  1.0000000  0.0000000 )
                  (  0.0000000  0.0000000 -1.0000000 )
                  ( -1.0000000  0.0000000  0.0000000 )


      isym = 20     120 deg rotation - cart. axis [1,-1,1]       

 cryst.   s(20) = (     0          0          1      )
                  (    -1          0          0      )
                  (     0         -1          0      )

 cart.    s(20) = (  0.0000000 -1.0000000  0.0000000 )
                  (  0.0000000  0.0000000 -1.0000000 )
                  (  1.0000000  0.0000000  0.0000000 )


      isym = 21     120 deg rotation - cart. axis [1,1,1]        

 cryst.   s(21) = (     0          1          0      )
                  (     0          0          1      )
                  (     1          0          0      )

 cart.    s(21) = (  0.0000000  0.0000000  1.0000000 )
                  (  1.0000000  0.0000000  0.0000000 )
                  (  0.0000000  1.0000000  0.0000000 )


      isym = 22     120 deg rotation - cart. axis [-1,1,-1]      

 cryst.   s(22) = (     0         -1          0      )
                  (     0          0         -1      )
                  (     1          0          0      )

 cart.    s(22) = (  0.0000000  0.0000000  1.0000000 )
                  ( -1.0000000  0.0000000  0.0000000 )
                  (  0.0000000 -1.0000000  0.0000000 )


      isym = 23     120 deg rotation - cart. axis [1,-1,-1]      

 cryst.   s(23) = (     0         -1          0      )
                  (     0          0          1      )
                  (    -1          0          0      )

 cart.    s(23) = (  0.0000000  0.0000000 -1.0000000 )
                  ( -1.0000000  0.0000000  0.0000000 )
                  (  0.0000000  1.0000000  0.0000000 )


      isym = 24     120 deg rotation - cart. axis [-1,-1,1]      

 cryst.   s(24) = (     0          1          0      )
                  (     0          0         -1      )
                  (    -1          0          0      )

 cart.    s(24) = (  0.0000000  0.0000000 -1.0000000 )
                  (  1.0000000  0.0000000  0.0000000 )
                  (  0.0000000 -1.0000000  0.0000000 )


      isym = 25     inversion                                    

 cryst.   s(25) = (    -1          0          0      )
                  (     0         -1          0      )
                  (     0          0         -1      )

 cart.    s(25) = ( -1.0000000  0.0000000  0.0000000 )
                  (  0.0000000 -1.0000000  0.0000000 )
                  (  0.0000000  0.0000000 -1.0000000 )


      isym = 26     inv. 180 deg rotation - cart. axis [0,0,1]   

 cryst.   s(26) = (     1          0          0      )
                  (     0          1          0      )
                  (     0          0         -1      )

 cart.    s(26) = (  1.0000000  0.0000000  0.0000000 )
                  (  0.0000000  1.0000000  0.0000000 )
                  (  0.0000000  0.0000000 -1.0000000 )


      isym = 27     inv. 180 deg rotation - cart. axis [0,1,0]   

 cryst.   s(27) = (     1          0          0      )
                  (     0         -1          0      )
                  (     0          0          1      )

 cart.    s(27) = (  1.0000000  0.0000000  0.0000000 )
                  (  0.0000000 -1.0000000  0.0000000 )
                  (  0.0000000  0.0000000  1.0000000 )


      isym = 28     inv. 180 deg rotation - cart. axis [1,0,0]   

 cryst.   s(28) = (    -1          0          0      )
                  (     0          1          0      )
                  (     0          0          1      )

 cart.    s(28) = ( -1.0000000  0.0000000  0.0000000 )
                  (  0.0000000  1.0000000  0.0000000 )
                  (  0.0000000  0.0000000  1.0000000 )


      isym = 29     inv. 180 deg rotation - cart. axis [1,1,0]   

 cryst.   s(29) = (     0         -1          0      )
                  (    -1          0          0      )
                  (     0          0          1      )

 cart.    s(29) = (  0.0000000 -1.0000000  0.0000000 )
                  ( -1.0000000  0.0000000  0.0000000 )
                  (  0.0000000  0.0000000  1.0000000 )


      isym = 30     inv. 180 deg rotation - cart. axis [1,-1,0]  

 cryst.   s(30) = (     0          1          0      )
                  (     1          0          0      )
                  (     0          0          1      )

 cart.    s(30) = (  0.0000000  1.0000000  0.0000000 )
                  (  1.0000000  0.0000000  0.0000000 )
                  (  0.0000000  0.0000000  1.0000000 )


      isym = 31     inv.  90 deg rotation - cart. axis [0,0,-1]  

 cryst.   s(31) = (     0          1          0      )
                  (    -1          0          0      )
                  (     0          0         -1      )

 cart.    s(31) = (  0.0000000 -1.0000000  0.0000000 )
                  (  1.0000000  0.0000000  0.0000000 )
                  (  0.0000000  0.0000000 -1.0000000 )


      isym = 32     inv.  90 deg rotation - cart. axis [0,0,1]   

 cryst.   s(32) = (     0         -1          0      )
                  (     1          0          0      )
                  (     0          0         -1      )

 cart.    s(32) = (  0.0000000  1.0000000  0.0000000 )
                  ( -1.0000000  0.0000000  0.0000000 )
                  (  0.0000000  0.0000000 -1.0000000 )


      isym = 33     inv. 180 deg rotation - cart. axis [1,0,1]   

 cryst.   s(33) = (     0          0         -1      )
                  (     0          1          0      )
                  (    -1          0          0      )

 cart.    s(33) = (  0.0000000  0.0000000 -1.0000000 )
                  (  0.0000000  1.0000000  0.0000000 )
                  ( -1.0000000  0.0000000  0.0000000 )


      isym = 34     inv. 180 deg rotation - cart. axis [-1,0,1]  

 cryst.   s(34) = (     0          0          1      )
                  (     0          1          0      )
                  (     1          0          0      )

 cart.    s(34) = (  0.0000000  0.0000000  1.0000000 )
                  (  0.0000000  1.0000000  0.0000000 )
                  (  1.0000000  0.0000000  0.0000000 )


      isym = 35     inv.  90 deg rotation - cart. axis [0,1,0]   

 cryst.   s(35) = (     0          0          1      )
                  (     0         -1          0      )
                  (    -1          0          0      )

 cart.    s(35) = (  0.0000000  0.0000000 -1.0000000 )
                  (  0.0000000 -1.0000000  0.0000000 )
                  (  1.0000000  0.0000000  0.0000000 )


      isym = 36     inv.  90 deg rotation - cart. axis [0,-1,0]  

 cryst.   s(36) = (     0          0         -1      )
                  (     0         -1          0      )
                  (     1          0          0      )

 cart.    s(36) = (  0.0000000  0.0000000  1.0000000 )
                  (  0.0000000 -1.0000000  0.0000000 )
                  ( -1.0000000  0.0000000  0.0000000 )


      isym = 37     inv. 180 deg rotation - cart. axis [0,1,1]   

 cryst.   s(37) = (     1          0          0      )
                  (     0          0         -1      )
                  (     0         -1          0      )

 cart.    s(37) = (  1.0000000  0.0000000  0.0000000 )
                  (  0.0000000  0.0000000 -1.0000000 )
                  (  0.0000000 -1.0000000  0.0000000 )


      isym = 38     inv. 180 deg rotation - cart. axis [0,1,-1]  

 cryst.   s(38) = (     1          0          0      )
                  (     0          0          1      )
                  (     0          1          0      )

 cart.    s(38) = (  1.0000000  0.0000000  0.0000000 )
                  (  0.0000000  0.0000000  1.0000000 )
                  (  0.0000000  1.0000000  0.0000000 )


      isym = 39     inv.  90 deg rotation - cart. axis [-1,0,0]  

 cryst.   s(39) = (    -1          0          0      )
                  (     0          0          1      )
                  (     0         -1          0      )

 cart.    s(39) = ( -1.0000000  0.0000000  0.0000000 )
                  (  0.0000000  0.0000000 -1.0000000 )
                  (  0.0000000  1.0000000  0.0000000 )


      isym = 40     inv.  90 deg rotation - cart. axis [1,0,0]   

 cryst.   s(40) = (    -1          0          0      )
                  (     0          0         -1      )
                  (     0          1          0      )

 cart.    s(40) = ( -1.0000000  0.0000000  0.0000000 )
                  (  0.0000000  0.0000000  1.0000000 )
                  (  0.0000000 -1.0000000  0.0000000 )


      isym = 41     inv. 120 deg rotation - cart. axis [-1,-1,-1]

 cryst.   s(41) = (     0          0         -1      )
                  (    -1          0          0      )
                  (     0         -1          0      )

 cart.    s(41) = (  0.0000000 -1.0000000  0.0000000 )
                  (  0.0000000  0.0000000 -1.0000000 )
                  ( -1.0000000  0.0000000  0.0000000 )


      isym = 42     inv. 120 deg rotation - cart. axis [-1,1,1]  

 cryst.   s(42) = (     0          0          1      )
                  (     1          0          0      )
                  (     0         -1          0      )

 cart.    s(42) = (  0.0000000  1.0000000  0.0000000 )
                  (  0.0000000  0.0000000 -1.0000000 )
                  (  1.0000000  0.0000000  0.0000000 )


      isym = 43     inv. 120 deg rotation - cart. axis [1,1,-1]  

 cryst.   s(43) = (     0          0          1      )
                  (    -1          0          0      )
                  (     0          1          0      )

 cart.    s(43) = (  0.0000000 -1.0000000  0.0000000 )
                  (  0.0000000  0.0000000  1.0000000 )
                  (  1.0000000  0.0000000  0.0000000 )


      isym = 44     inv. 120 deg rotation - cart. axis [1,-1,1]  

 cryst.   s(44) = (     0          0         -1      )
                  (     1          0          0      )
                  (     0          1          0      )

 cart.    s(44) = (  0.0000000  1.0000000  0.0000000 )
                  (  0.0000000  0.0000000  1.0000000 )
                  ( -1.0000000  0.0000000  0.0000000 )


      isym = 45     inv. 120 deg rotation - cart. axis [1,1,1]   

 cryst.   s(45) = (     0         -1          0      )
                  (     0          0         -1      )
                  (    -1          0          0      )

 cart.    s(45) = (  0.0000000  0.0000000 -1.0000000 )
                  ( -1.0000000  0.0000000  0.0000000 )
                  (  0.0000000 -1.0000000  0.0000000 )


      isym = 46     inv. 120 deg rotation - cart. axis [-1,1,-1] 

 cryst.   s(46) = (     0          1          0      )
                  (     0          0          1      )
                  (    -1          0          0      )

 cart.    s(46) = (  0.0000000  0.0000000 -1.0000000 )
                  (  1.0000000  0.0000000  0.0000000 )
                  (  0.0000000  1.0000000  0.0000000 )


      isym = 47     inv. 120 deg rotation - cart. axis [1,-1,-1] 

 cryst.   s(47) = (     0          1          0      )
                  (     0          0         -1      )
                  (     1          0          0      )

 cart.    s(47) = (  0.0000000  0.0000000  1.0000000 )
                  (  1.0000000  0.0000000  0.0000000 )
                  (  0.0000000 -1.0000000  0.0000000 )


      isym = 48     inv. 120 deg rotation - cart. axis [-1,-1,1] 

 cryst.   s(48) = (     0         -1          0      )
                  (     0          0          1      )
                  (     1          0          0      )

 cart.    s(48) = (  0.0000000  0.0000000  1.0000000 )
                  ( -1.0000000  0.0000000  0.0000000 )
                  (  0.0000000  1.0000000  0.0000000 )


   Cartesian axes

     site n.     atom                  positions (alat units)
         1        Fe     tau(   1) = (   0.0000000   0.0000000   0.0000000  )
         2        Fe     tau(   2) = (   0.5000000   0.5000000   0.5000000  )

   Crystallographic axes

     site n.     atom                  positions (cryst. coord.)
         1        Fe     tau(   1) = (  0.0000000  0.0000000  0.0000000  )
         2        Fe     tau(   2) = (  0.5000000  0.5000000  0.5000000  )

     number of k points=   286  Marzari-Vanderbilt smearing, width (Ry)=  0.0100
                       cart. coord. in units 2pi/alat
        k(    1) = (   0.0000000   0.0000000   0.0000000), wk =   0.0001250
        k(    2) = (   0.0000000   0.0000000   0.0500000), wk =   0.0007500
        k(    3) = (   0.0000000   0.0000000   0.1000000), wk =   0.0007500
        k(    4) = (   0.0000000   0.0000000   0.1500000), wk =   0.0007500
        k(    5) = (   0.0000000   0.0000000   0.2000000), wk =   0.0007500
        k(    6) = (   0.0000000   0.0000000   0.2500000), wk =   0.0007500
        k(    7) = (   0.0000000   0.0000000   0.3000000), wk =   0.0007500
        k(    8) = (   0.0000000   0.0000000   0.3500000), wk =   0.0007500
        k(    9) = (   0.0000000   0.0000000   0.4000000), wk =   0.0007500
        k(   10) = (   0.0000000   0.0000000   0.4500000), wk =   0.0007500
        k(   11) = (   0.0000000   0.0000000  -0.5000000), wk =   0.0003750
        k(   12) = (   0.0000000   0.0500000   0.0500000), wk =   0.0015000
        k(   13) = (   0.0000000   0.0500000   0.1000000), wk =   0.0030000
        k(   14) = (   0.0000000   0.0500000   0.1500000), wk =   0.0030000
        k(   15) = (   0.0000000   0.0500000   0.2000000), wk =   0.0030000
        k(   16) = (   0.0000000   0.0500000   0.2500000), wk =   0.0030000
        k(   17) = (   0.0000000   0.0500000   0.3000000), wk =   0.0030000
        k(   18) = (   0.0000000   0.0500000   0.3500000), wk =   0.0030000
        k(   19) = (   0.0000000   0.0500000   0.4000000), wk =   0.0030000
        k(   20) = (   0.0000000   0.0500000   0.4500000), wk =   0.0030000
        k(   21) = (   0.0000000   0.0500000  -0.5000000), wk =   0.0015000
        k(   22) = (   0.0000000   0.1000000   0.1000000), wk =   0.0015000
        k(   23) = (   0.0000000   0.1000000   0.1500000), wk =   0.0030000
        k(   24) = (   0.0000000   0.1000000   0.2000000), wk =   0.0030000
        k(   25) = (   0.0000000   0.1000000   0.2500000), wk =   0.0030000
        k(   26) = (   0.0000000   0.1000000   0.3000000), wk =   0.0030000
        k(   27) = (   0.0000000   0.1000000   0.3500000), wk =   0.0030000
        k(   28) = (   0.0000000   0.1000000   0.4000000), wk =   0.0030000
        k(   29) = (   0.0000000   0.1000000   0.4500000), wk =   0.0030000
        k(   30) = (   0.0000000   0.1000000  -0.5000000), wk =   0.0015000
        k(   31) = (   0.0000000   0.1500000   0.1500000), wk =   0.0015000
        k(   32) = (   0.0000000   0.1500000   0.2000000), wk =   0.0030000
        k(   33) = (   0.0000000   0.1500000   0.2500000), wk =   0.0030000
        k(   34) = (   0.0000000   0.1500000   0.3000000), wk =   0.0030000
        k(   35) = (   0.0000000   0.1500000   0.3500000), wk =   0.0030000
        k(   36) = (   0.0000000   0.1500000   0.4000000), wk =   0.0030000
        k(   37) = (   0.0000000   0.1500000   0.4500000), wk =   0.0030000
        k(   38) = (   0.0000000   0.1500000  -0.5000000), wk =   0.0015000
        k(   39) = (   0.0000000   0.2000000   0.2000000), wk =   0.0015000
        k(   40) = (   0.0000000   0.2000000   0.2500000), wk =   0.0030000
        k(   41) = (   0.0000000   0.2000000   0.3000000), wk =   0.0030000
        k(   42) = (   0.0000000   0.2000000   0.3500000), wk =   0.0030000
        k(   43) = (   0.0000000   0.2000000   0.4000000), wk =   0.0030000
        k(   44) = (   0.0000000   0.2000000   0.4500000), wk =   0.0030000
        k(   45) = (   0.0000000   0.2000000  -0.5000000), wk =   0.0015000
        k(   46) = (   0.0000000   0.2500000   0.2500000), wk =   0.0015000
        k(   47) = (   0.0000000   0.2500000   0.3000000), wk =   0.0030000
        k(   48) = (   0.0000000   0.2500000   0.3500000), wk =   0.0030000
        k(   49) = (   0.0000000   0.2500000   0.4000000), wk =   0.0030000
        k(   50) = (   0.0000000   0.2500000   0.4500000), wk =   0.0030000
        k(   51) = (   0.0000000   0.2500000  -0.5000000), wk =   0.0015000
        k(   52) = (   0.0000000   0.3000000   0.3000000), wk =   0.0015000
        k(   53) = (   0.0000000   0.3000000   0.3500000), wk =   0.0030000
        k(   54) = (   0.0000000   0.3000000   0.4000000), wk =   0.0030000
        k(   55) = (   0.0000000   0.3000000   0.4500000), wk =   0.0030000
        k(   56) = (   0.0000000   0.3000000  -0.5000000), wk =   0.0015000
        k(   57) = (   0.0000000   0.3500000   0.3500000), wk =   0.0015000
        k(   58) = (   0.0000000   0.3500000   0.4000000), wk =   0.0030000
        k(   59) = (   0.0000000   0.3500000   0.4500000), wk =   0.0030000
        k(   60) = (   0.0000000   0.3500000  -0.5000000), wk =   0.0015000
        k(   61) = (   0.0000000   0.4000000   0.4000000), wk =   0.0015000
        k(   62) = (   0.0000000   0.4000000   0.4500000), wk =   0.0030000
        k(   63) = (   0.0000000   0.4000000  -0.5000000), wk =   0.0015000
        k(   64) = (   0.0000000   0.4500000   0.4500000), wk =   0.0015000
        k(   65) = (   0.0000000   0.4500000  -0.5000000), wk =   0.0015000
        k(   66) = (   0.0000000  -0.5000000  -0.5000000), wk =   0.0003750
        k(   67) = (   0.0500000   0.0500000   0.0500000), wk =   0.0010000
        k(   68) = (   0.0500000   0.0500000   0.1000000), wk =   0.0030000
        k(   69) = (   0.0500000   0.0500000   0.1500000), wk =   0.0030000
        k(   70) = (   0.0500000   0.0500000   0.2000000), wk =   0.0030000
        k(   71) = (   0.0500000   0.0500000   0.2500000), wk =   0.0030000
        k(   72) = (   0.0500000   0.0500000   0.3000000), wk =   0.0030000
        k(   73) = (   0.0500000   0.0500000   0.3500000), wk =   0.0030000
        k(   74) = (   0.0500000   0.0500000   0.4000000), wk =   0.0030000
        k(   75) = (   0.0500000   0.0500000   0.4500000), wk =   0.0030000
        k(   76) = (   0.0500000   0.0500000  -0.5000000), wk =   0.0015000
        k(   77) = (   0.0500000   0.1000000   0.1000000), wk =   0.0030000
        k(   78) = (   0.0500000   0.1000000   0.1500000), wk =   0.0060000
        k(   79) = (   0.0500000   0.1000000   0.2000000), wk =   0.0060000
        k(   80) = (   0.0500000   0.1000000   0.2500000), wk =   0.0060000
        k(   81) = (   0.0500000   0.1000000   0.3000000), wk =   0.0060000
        k(   82) = (   0.0500000   0.1000000   0.3500000), wk =   0.0060000
        k(   83) = (   0.0500000   0.1000000   0.4000000), wk =   0.0060000
        k(   84) = (   0.0500000   0.1000000   0.4500000), wk =   0.0060000
        k(   85) = (   0.0500000   0.1000000  -0.5000000), wk =   0.0030000
        k(   86) = (   0.0500000   0.1500000   0.1500000), wk =   0.0030000
        k(   87) = (   0.0500000   0.1500000   0.2000000), wk =   0.0060000
        k(   88) = (   0.0500000   0.1500000   0.2500000), wk =   0.0060000
        k(   89) = (   0.0500000   0.1500000   0.3000000), wk =   0.0060000
        k(   90) = (   0.0500000   0.1500000   0.3500000), wk =   0.0060000
        k(   91) = (   0.0500000   0.1500000   0.4000000), wk =   0.0060000
        k(   92) = (   0.0500000   0.1500000   0.4500000), wk =   0.0060000
        k(   93) = (   0.0500000   0.1500000  -0.5000000), wk =   0.0030000
        k(   94) = (   0.0500000   0.2000000   0.2000000), wk =   0.0030000
        k(   95) = (   0.0500000   0.2000000   0.2500000), wk =   0.0060000
        k(   96) = (   0.0500000   0.2000000   0.3000000), wk =   0.0060000
        k(   97) = (   0.0500000   0.2000000   0.3500000), wk =   0.0060000
        k(   98) = (   0.0500000   0.2000000   0.4000000), wk =   0.0060000
        k(   99) = (   0.0500000   0.2000000   0.4500000), wk =   0.0060000
        k(  100) = (   0.0500000   0.2000000  -0.5000000), wk =   0.0030000
        k(  101) = (   0.0500000   0.2500000   0.2500000), wk =   0.0030000
        k(  102) = (   0.0500000   0.2500000   0.3000000), wk =   0.0060000
        k(  103) = (   0.0500000   0.2500000   0.3500000), wk =   0.0060000
        k(  104) = (   0.0500000   0.2500000   0.4000000), wk =   0.0060000
        k(  105) = (   0.0500000   0.2500000   0.4500000), wk =   0.0060000
        k(  106) = (   0.0500000   0.2500000  -0.5000000), wk =   0.0030000
        k(  107) = (   0.0500000   0.3000000   0.3000000), wk =   0.0030000
        k(  108) = (   0.0500000   0.3000000   0.3500000), wk =   0.0060000
        k(  109) = (   0.0500000   0.3000000   0.4000000), wk =   0.0060000
        k(  110) = (   0.0500000   0.3000000   0.4500000), wk =   0.0060000
        k(  111) = (   0.0500000   0.3000000  -0.5000000), wk =   0.0030000
        k(  112) = (   0.0500000   0.3500000   0.3500000), wk =   0.0030000
        k(  113) = (   0.0500000   0.3500000   0.4000000), wk =   0.0060000
        k(  114) = (   0.0500000   0.3500000   0.4500000), wk =   0.0060000
        k(  115) = (   0.0500000   0.3500000  -0.5000000), wk =   0.0030000
        k(  116) = (   0.0500000   0.4000000   0.4000000), wk =   0.0030000
        k(  117) = (   0.0500000   0.4000000   0.4500000), wk =   0.0060000
        k(  118) = (   0.0500000   0.4000000  -0.5000000), wk =   0.0030000
        k(  119) = (   0.0500000   0.4500000   0.4500000), wk =   0.0030000
        k(  120) = (   0.0500000   0.4500000  -0.5000000), wk =   0.0030000
        k(  121) = (   0.0500000  -0.5000000  -0.5000000), wk =   0.0007500
        k(  122) = (   0.1000000   0.1000000   0.1000000), wk =   0.0010000
        k(  123) = (   0.1000000   0.1000000   0.1500000), wk =   0.0030000
        k(  124) = (   0.1000000   0.1000000   0.2000000), wk =   0.0030000
        k(  125) = (   0.1000000   0.1000000   0.2500000), wk =   0.0030000
        k(  126) = (   0.1000000   0.1000000   0.3000000), wk =   0.0030000
        k(  127) = (   0.1000000   0.1000000   0.3500000), wk =   0.0030000
        k(  128) = (   0.1000000   0.1000000   0.4000000), wk =   0.0030000
        k(  129) = (   0.1000000   0.1000000   0.4500000), wk =   0.0030000
        k(  130) = (   0.1000000   0.1000000  -0.5000000), wk =   0.0015000
        k(  131) = (   0.1000000   0.1500000   0.1500000), wk =   0.0030000
        k(  132) = (   0.1000000   0.1500000   0.2000000), wk =   0.0060000
        k(  133) = (   0.1000000   0.1500000   0.2500000), wk =   0.0060000
        k(  134) = (   0.1000000   0.1500000   0.3000000), wk =   0.0060000
        k(  135) = (   0.1000000   0.1500000   0.3500000), wk =   0.0060000
        k(  136) = (   0.1000000   0.1500000   0.4000000), wk =   0.0060000
        k(  137) = (   0.1000000   0.1500000   0.4500000), wk =   0.0060000
        k(  138) = (   0.1000000   0.1500000  -0.5000000), wk =   0.0030000
        k(  139) = (   0.1000000   0.2000000   0.2000000), wk =   0.0030000
        k(  140) = (   0.1000000   0.2000000   0.2500000), wk =   0.0060000
        k(  141) = (   0.1000000   0.2000000   0.3000000), wk =   0.0060000
        k(  142) = (   0.1000000   0.2000000   0.3500000), wk =   0.0060000
        k(  143) = (   0.1000000   0.2000000   0.4000000), wk =   0.0060000
        k(  144) = (   0.1000000   0.2000000   0.4500000), wk =   0.0060000
        k(  145) = (   0.1000000   0.2000000  -0.5000000), wk =   0.0030000
        k(  146) = (   0.1000000   0.2500000   0.2500000), wk =   0.0030000
        k(  147) = (   0.1000000   0.2500000   0.3000000), wk =   0.0060000
        k(  148) = (   0.1000000   0.2500000   0.3500000), wk =   0.0060000
        k(  149) = (   0.1000000   0.2500000   0.4000000), wk =   0.0060000
        k(  150) = (   0.1000000   0.2500000   0.4500000), wk =   0.0060000
        k(  151) = (   0.1000000   0.2500000  -0.5000000), wk =   0.0030000
        k(  152) = (   0.1000000   0.3000000   0.3000000), wk =   0.0030000
        k(  153) = (   0.1000000   0.3000000   0.3500000), wk =   0.0060000
        k(  154) = (   0.1000000   0.3000000   0.4000000), wk =   0.0060000
        k(  155) = (   0.1000000   0.3000000   0.4500000), wk =   0.0060000
        k(  156) = (   0.1000000   0.3000000  -0.5000000), wk =   0.0030000
        k(  157) = (   0.1000000   0.3500000   0.3500000), wk =   0.0030000
        k(  158) = (   0.1000000   0.3500000   0.4000000), wk =   0.0060000
        k(  159) = (   0.1000000   0.3500000   0.4500000), wk =   0.0060000
        k(  160) = (   0.1000000   0.3500000  -0.5000000), wk =   0.0030000
        k(  161) = (   0.1000000   0.4000000   0.4000000), wk =   0.0030000
        k(  162) = (   0.1000000   0.4000000   0.4500000), wk =   0.0060000
        k(  163) = (   0.1000000   0.4000000  -0.5000000), wk =   0.0030000
        k(  164) = (   0.1000000   0.4500000   0.4500000), wk =   0.0030000
        k(  165) = (   0.1000000   0.4500000  -0.5000000), wk =   0.0030000
        k(  166) = (   0.1000000  -0.5000000  -0.5000000), wk =   0.0007500
        k(  167) = (   0.1500000   0.1500000   0.1500000), wk =   0.0010000
        k(  168) = (   0.1500000   0.1500000   0.2000000), wk =   0.0030000
        k(  169) = (   0.1500000   0.1500000   0.2500000), wk =   0.0030000
        k(  170) = (   0.1500000   0.1500000   0.3000000), wk =   0.0030000
        k(  171) = (   0.1500000   0.1500000   0.3500000), wk =   0.0030000
        k(  172) = (   0.1500000   0.1500000   0.4000000), wk =   0.0030000
        k(  173) = (   0.1500000   0.1500000   0.4500000), wk =   0.0030000
        k(  174) = (   0.1500000   0.1500000  -0.5000000), wk =   0.0015000
        k(  175) = (   0.1500000   0.2000000   0.2000000), wk =   0.0030000
        k(  176) = (   0.1500000   0.2000000   0.2500000), wk =   0.0060000
        k(  177) = (   0.1500000   0.2000000   0.3000000), wk =   0.0060000
        k(  178) = (   0.1500000   0.2000000   0.3500000), wk =   0.0060000
        k(  179) = (   0.1500000   0.2000000   0.4000000), wk =   0.0060000
        k(  180) = (   0.1500000   0.2000000   0.4500000), wk =   0.0060000
        k(  181) = (   0.1500000   0.2000000  -0.5000000), wk =   0.0030000
        k(  182) = (   0.1500000   0.2500000   0.2500000), wk =   0.0030000
        k(  183) = (   0.1500000   0.2500000   0.3000000), wk =   0.0060000
        k(  184) = (   0.1500000   0.2500000   0.3500000), wk =   0.0060000
        k(  185) = (   0.1500000   0.2500000   0.4000000), wk =   0.0060000
        k(  186) = (   0.1500000   0.2500000   0.4500000), wk =   0.0060000
        k(  187) = (   0.1500000   0.2500000  -0.5000000), wk =   0.0030000
        k(  188) = (   0.1500000   0.3000000   0.3000000), wk =   0.0030000
        k(  189) = (   0.1500000   0.3000000   0.3500000), wk =   0.0060000
        k(  190) = (   0.1500000   0.3000000   0.4000000), wk =   0.0060000
        k(  191) = (   0.1500000   0.3000000   0.4500000), wk =   0.0060000
        k(  192) = (   0.1500000   0.3000000  -0.5000000), wk =   0.0030000
        k(  193) = (   0.1500000   0.3500000   0.3500000), wk =   0.0030000
        k(  194) = (   0.1500000   0.3500000   0.4000000), wk =   0.0060000
        k(  195) = (   0.1500000   0.3500000   0.4500000), wk =   0.0060000
        k(  196) = (   0.1500000   0.3500000  -0.5000000), wk =   0.0030000
        k(  197) = (   0.1500000   0.4000000   0.4000000), wk =   0.0030000
        k(  198) = (   0.1500000   0.4000000   0.4500000), wk =   0.0060000
        k(  199) = (   0.1500000   0.4000000  -0.5000000), wk =   0.0030000
        k(  200) = (   0.1500000   0.4500000   0.4500000), wk =   0.0030000
        k(  201) = (   0.1500000   0.4500000  -0.5000000), wk =   0.0030000
        k(  202) = (   0.1500000  -0.5000000  -0.5000000), wk =   0.0007500
        k(  203) = (   0.2000000   0.2000000   0.2000000), wk =   0.0010000
        k(  204) = (   0.2000000   0.2000000   0.2500000), wk =   0.0030000
        k(  205) = (   0.2000000   0.2000000   0.3000000), wk =   0.0030000
        k(  206) = (   0.2000000   0.2000000   0.3500000), wk =   0.0030000
        k(  207) = (   0.2000000   0.2000000   0.4000000), wk =   0.0030000
        k(  208) = (   0.2000000   0.2000000   0.4500000), wk =   0.0030000
        k(  209) = (   0.2000000   0.2000000  -0.5000000), wk =   0.0015000
        k(  210) = (   0.2000000   0.2500000   0.2500000), wk =   0.0030000
        k(  211) = (   0.2000000   0.2500000   0.3000000), wk =   0.0060000
        k(  212) = (   0.2000000   0.2500000   0.3500000), wk =   0.0060000
        k(  213) = (   0.2000000   0.2500000   0.4000000), wk =   0.0060000
        k(  214) = (   0.2000000   0.2500000   0.4500000), wk =   0.0060000
        k(  215) = (   0.2000000   0.2500000  -0.5000000), wk =   0.0030000
        k(  216) = (   0.2000000   0.3000000   0.3000000), wk =   0.0030000
        k(  217) = (   0.2000000   0.3000000   0.3500000), wk =   0.0060000
        k(  218) = (   0.2000000   0.3000000   0.4000000), wk =   0.0060000
        k(  219) = (   0.2000000   0.3000000   0.4500000), wk =   0.0060000
        k(  220) = (   0.2000000   0.3000000  -0.5000000), wk =   0.0030000
        k(  221) = (   0.2000000   0.3500000   0.3500000), wk =   0.0030000
        k(  222) = (   0.2000000   0.3500000   0.4000000), wk =   0.0060000
        k(  223) = (   0.2000000   0.3500000   0.4500000), wk =   0.0060000
        k(  224) = (   0.2000000   0.3500000  -0.5000000), wk =   0.0030000
        k(  225) = (   0.2000000   0.4000000   0.4000000), wk =   0.0030000
        k(  226) = (   0.2000000   0.4000000   0.4500000), wk =   0.0060000
        k(  227) = (   0.2000000   0.4000000  -0.5000000), wk =   0.0030000
        k(  228) = (   0.2000000   0.4500000   0.4500000), wk =   0.0030000
        k(  229) = (   0.2000000   0.4500000  -0.5000000), wk =   0.0030000
        k(  230) = (   0.2000000  -0.5000000  -0.5000000), wk =   0.0007500
        k(  231) = (   0.2500000   0.2500000   0.2500000), wk =   0.0010000
        k(  232) = (   0.2500000   0.2500000   0.3000000), wk =   0.0030000
        k(  233) = (   0.2500000   0.2500000   0.3500000), wk =   0.0030000
        k(  234) = (   0.2500000   0.2500000   0.4000000), wk =   0.0030000
        k(  235) = (   0.2500000   0.2500000   0.4500000), wk =   0.0030000
        k(  236) = (   0.2500000   0.2500000  -0.5000000), wk =   0.0015000
        k(  237) = (   0.2500000   0.3000000   0.3000000), wk =   0.0030000
        k(  238) = (   0.2500000   0.3000000   0.3500000), wk =   0.0060000
        k(  239) = (   0.2500000   0.3000000   0.4000000), wk =   0.0060000
        k(  240) = (   0.2500000   0.3000000   0.4500000), wk =   0.0060000
        k(  241) = (   0.2500000   0.3000000  -0.5000000), wk =   0.0030000
        k(  242) = (   0.2500000   0.3500000   0.3500000), wk =   0.0030000
        k(  243) = (   0.2500000   0.3500000   0.4000000), wk =   0.0060000
        k(  244) = (   0.2500000   0.3500000   0.4500000), wk =   0.0060000
        k(  245) = (   0.2500000   0.3500000  -0.5000000), wk =   0.0030000
        k(  246) = (   0.2500000   0.4000000   0.4000000), wk =   0.0030000
        k(  247) = (   0.2500000   0.4000000   0.4500000), wk =   0.0060000
        k(  248) = (   0.2500000   0.4000000  -0.5000000), wk =   0.0030000
        k(  249) = (   0.2500000   0.4500000   0.4500000), wk =   0.0030000
        k(  250) = (   0.2500000   0.4500000  -0.5000000), wk =   0.0030000
        k(  251) = (   0.2500000  -0.5000000  -0.5000000), wk =   0.0007500
        k(  252) = (   0.3000000   0.3000000   0.3000000), wk =   0.0010000
        k(  253) = (   0.3000000   0.3000000   0.3500000), wk =   0.0030000
        k(  254) = (   0.3000000   0.3000000   0.4000000), wk =   0.0030000
        k(  255) = (   0.3000000   0.3000000   0.4500000), wk =   0.0030000
        k(  256) = (   0.3000000   0.3000000  -0.5000000), wk =   0.0015000
        k(  257) = (   0.3000000   0.3500000   0.3500000), wk =   0.0030000
        k(  258) = (   0.3000000   0.3500000   0.4000000), wk =   0.0060000
        k(  259) = (   0.3000000   0.3500000   0.4500000), wk =   0.0060000
        k(  260) = (   0.3000000   0.3500000  -0.5000000), wk =   0.0030000
        k(  261) = (   0.3000000   0.4000000   0.4000000), wk =   0.0030000
        k(  262) = (   0.3000000   0.4000000   0.4500000), wk =   0.0060000
        k(  263) = (   0.3000000   0.4000000  -0.5000000), wk =   0.0030000
        k(  264) = (   0.3000000   0.4500000   0.4500000), wk =   0.0030000
        k(  265) = (   0.3000000   0.4500000  -0.5000000), wk =   0.0030000
        k(  266) = (   0.3000000  -0.5000000  -0.5000000), wk =   0.0007500
        k(  267) = (   0.3500000   0.3500000   0.3500000), wk =   0.0010000
        k(  268) = (   0.3500000   0.3500000   0.4000000), wk =   0.0030000
        k(  269) = (   0.3500000   0.3500000   0.4500000), wk =   0.0030000
        k(  270) = (   0.3500000   0.3500000  -0.5000000), wk =   0.0015000
        k(  271) = (   0.3500000   0.4000000   0.4000000), wk =   0.0030000
        k(  272) = (   0.3500000   0.4000000   0.4500000), wk =   0.0060000
        k(  273) = (   0.3500000   0.4000000  -0.5000000), wk =   0.0030000
        k(  274) = (   0.3500000   0.4500000   0.4500000), wk =   0.0030000
        k(  275) = (   0.3500000   0.4500000  -0.5000000), wk =   0.0030000
        k(  276) = (   0.3500000  -0.5000000  -0.5000000), wk =   0.0007500
        k(  277) = (   0.4000000   0.4000000   0.4000000), wk =   0.0010000
        k(  278) = (   0.4000000   0.4000000   0.4500000), wk =   0.0030000
        k(  279) = (   0.4000000   0.4000000  -0.5000000), wk =   0.0015000
        k(  280) = (   0.4000000   0.4500000   0.4500000), wk =   0.0030000
        k(  281) = (   0.4000000   0.4500000  -0.5000000), wk =   0.0030000
        k(  282) = (   0.4000000  -0.5000000  -0.5000000), wk =   0.0007500
        k(  283) = (   0.4500000   0.4500000   0.4500000), wk =   0.0010000
        k(  284) = (   0.4500000   0.4500000  -0.5000000), wk =   0.0015000
        k(  285) = (   0.4500000  -0.5000000  -0.5000000), wk =   0.0007500
        k(  286) = (  -0.5000000  -0.5000000  -0.5000000), wk =   0.0001250

                       cryst. coord.
        k(    1) = (   0.0000000   0.0000000   0.0000000), wk =   0.0001250
        k(    2) = (   0.0000000   0.0000000   0.0500000), wk =   0.0007500
        k(    3) = (   0.0000000   0.0000000   0.1000000), wk =   0.0007500
        k(    4) = (   0.0000000   0.0000000   0.1500000), wk =   0.0007500
        k(    5) = (   0.0000000   0.0000000   0.2000000), wk =   0.0007500
        k(    6) = (   0.0000000   0.0000000   0.2500000), wk =   0.0007500
        k(    7) = (   0.0000000   0.0000000   0.3000000), wk =   0.0007500
        k(    8) = (   0.0000000   0.0000000   0.3500000), wk =   0.0007500
        k(    9) = (   0.0000000   0.0000000   0.4000000), wk =   0.0007500
        k(   10) = (   0.0000000   0.0000000   0.4500000), wk =   0.0007500
        k(   11) = (   0.0000000   0.0000000  -0.5000000), wk =   0.0003750
        k(   12) = (   0.0000000   0.0500000   0.0500000), wk =   0.0015000
        k(   13) = (   0.0000000   0.0500000   0.1000000), wk =   0.0030000
        k(   14) = (   0.0000000   0.0500000   0.1500000), wk =   0.0030000
        k(   15) = (   0.0000000   0.0500000   0.2000000), wk =   0.0030000
        k(   16) = (   0.0000000   0.0500000   0.2500000), wk =   0.0030000
        k(   17) = (   0.0000000   0.0500000   0.3000000), wk =   0.0030000
        k(   18) = (   0.0000000   0.0500000   0.3500000), wk =   0.0030000
        k(   19) = (   0.0000000   0.0500000   0.4000000), wk =   0.0030000
        k(   20) = (   0.0000000   0.0500000   0.4500000), wk =   0.0030000
        k(   21) = (   0.0000000   0.0500000  -0.5000000), wk =   0.0015000
        k(   22) = (   0.0000000   0.1000000   0.1000000), wk =   0.0015000
        k(   23) = (   0.0000000   0.1000000   0.1500000), wk =   0.0030000
        k(   24) = (   0.0000000   0.1000000   0.2000000), wk =   0.0030000
        k(   25) = (   0.0000000   0.1000000   0.2500000), wk =   0.0030000
        k(   26) = (   0.0000000   0.1000000   0.3000000), wk =   0.0030000
        k(   27) = (   0.0000000   0.1000000   0.3500000), wk =   0.0030000
        k(   28) = (   0.0000000   0.1000000   0.4000000), wk =   0.0030000
        k(   29) = (   0.0000000   0.1000000   0.4500000), wk =   0.0030000
        k(   30) = (   0.0000000   0.1000000  -0.5000000), wk =   0.0015000
        k(   31) = (   0.0000000   0.1500000   0.1500000), wk =   0.0015000
        k(   32) = (   0.0000000   0.1500000   0.2000000), wk =   0.0030000
        k(   33) = (   0.0000000   0.1500000   0.2500000), wk =   0.0030000
        k(   34) = (   0.0000000   0.1500000   0.3000000), wk =   0.0030000
        k(   35) = (   0.0000000   0.1500000   0.3500000), wk =   0.0030000
        k(   36) = (   0.0000000   0.1500000   0.4000000), wk =   0.0030000
        k(   37) = (   0.0000000   0.1500000   0.4500000), wk =   0.0030000
        k(   38) = (   0.0000000   0.1500000  -0.5000000), wk =   0.0015000
        k(   39) = (   0.0000000   0.2000000   0.2000000), wk =   0.0015000
        k(   40) = (   0.0000000   0.2000000   0.2500000), wk =   0.0030000
        k(   41) = (   0.0000000   0.2000000   0.3000000), wk =   0.0030000
        k(   42) = (   0.0000000   0.2000000   0.3500000), wk =   0.0030000
        k(   43) = (   0.0000000   0.2000000   0.4000000), wk =   0.0030000
        k(   44) = (   0.0000000   0.2000000   0.4500000), wk =   0.0030000
        k(   45) = (   0.0000000   0.2000000  -0.5000000), wk =   0.0015000
        k(   46) = (   0.0000000   0.2500000   0.2500000), wk =   0.0015000
        k(   47) = (   0.0000000   0.2500000   0.3000000), wk =   0.0030000
        k(   48) = (   0.0000000   0.2500000   0.3500000), wk =   0.0030000
        k(   49) = (   0.0000000   0.2500000   0.4000000), wk =   0.0030000
        k(   50) = (   0.0000000   0.2500000   0.4500000), wk =   0.0030000
        k(   51) = (   0.0000000   0.2500000  -0.5000000), wk =   0.0015000
        k(   52) = (   0.0000000   0.3000000   0.3000000), wk =   0.0015000
        k(   53) = (   0.0000000   0.3000000   0.3500000), wk =   0.0030000
        k(   54) = (   0.0000000   0.3000000   0.4000000), wk =   0.0030000
        k(   55) = (   0.0000000   0.3000000   0.4500000), wk =   0.0030000
        k(   56) = (   0.0000000   0.3000000  -0.5000000), wk =   0.0015000
        k(   57) = (   0.0000000   0.3500000   0.3500000), wk =   0.0015000
        k(   58) = (   0.0000000   0.3500000   0.4000000), wk =   0.0030000
        k(   59) = (   0.0000000   0.3500000   0.4500000), wk =   0.0030000
        k(   60) = (   0.0000000   0.3500000  -0.5000000), wk =   0.0015000
        k(   61) = (   0.0000000   0.4000000   0.4000000), wk =   0.0015000
        k(   62) = (   0.0000000   0.4000000   0.4500000), wk =   0.0030000
        k(   63) = (   0.0000000   0.4000000  -0.5000000), wk =   0.0015000
        k(   64) = (   0.0000000   0.4500000   0.4500000), wk =   0.0015000
        k(   65) = (   0.0000000   0.4500000  -0.5000000), wk =   0.0015000
        k(   66) = (   0.0000000  -0.5000000  -0.5000000), wk =   0.0003750
        k(   67) = (   0.0500000   0.0500000   0.0500000), wk =   0.0010000
        k(   68) = (   0.0500000   0.0500000   0.1000000), wk =   0.0030000
        k(   69) = (   0.0500000   0.0500000   0.1500000), wk =   0.0030000
        k(   70) = (   0.0500000   0.0500000   0.2000000), wk =   0.0030000
        k(   71) = (   0.0500000   0.0500000   0.2500000), wk =   0.0030000
        k(   72) = (   0.0500000   0.0500000   0.3000000), wk =   0.0030000
        k(   73) = (   0.0500000   0.0500000   0.3500000), wk =   0.0030000
        k(   74) = (   0.0500000   0.0500000   0.4000000), wk =   0.0030000
        k(   75) = (   0.0500000   0.0500000   0.4500000), wk =   0.0030000
        k(   76) = (   0.0500000   0.0500000  -0.5000000), wk =   0.0015000
        k(   77) = (   0.0500000   0.1000000   0.1000000), wk =   0.0030000
        k(   78) = (   0.0500000   0.1000000   0.1500000), wk =   0.0060000
        k(   79) = (   0.0500000   0.1000000   0.2000000), wk =   0.0060000
        k(   80) = (   0.0500000   0.1000000   0.2500000), wk =   0.0060000
        k(   81) = (   0.0500000   0.1000000   0.3000000), wk =   0.0060000
        k(   82) = (   0.0500000   0.1000000   0.3500000), wk =   0.0060000
        k(   83) = (   0.0500000   0.1000000   0.4000000), wk =   0.0060000
        k(   84) = (   0.0500000   0.1000000   0.4500000), wk =   0.0060000
        k(   85) = (   0.0500000   0.1000000  -0.5000000), wk =   0.0030000
        k(   86) = (   0.0500000   0.1500000   0.1500000), wk =   0.0030000
        k(   87) = (   0.0500000   0.1500000   0.2000000), wk =   0.0060000
        k(   88) = (   0.0500000   0.1500000   0.2500000), wk =   0.0060000
        k(   89) = (   0.0500000   0.1500000   0.3000000), wk =   0.0060000
        k(   90) = (   0.0500000   0.1500000   0.3500000), wk =   0.0060000
        k(   91) = (   0.0500000   0.1500000   0.4000000), wk =   0.0060000
        k(   92) = (   0.0500000   0.1500000   0.4500000), wk =   0.0060000
        k(   93) = (   0.0500000   0.1500000  -0.5000000), wk =   0.0030000
        k(   94) = (   0.0500000   0.2000000   0.2000000), wk =   0.0030000
        k(   95) = (   0.0500000   0.2000000   0.2500000), wk =   0.0060000
        k(   96) = (   0.0500000   0.2000000   0.3000000), wk =   0.0060000
        k(   97) = (   0.0500000   0.2000000   0.3500000), wk =   0.0060000
        k(   98) = (   0.0500000   0.2000000   0.4000000), wk =   0.0060000
        k(   99) = (   0.0500000   0.2000000   0.4500000), wk =   0.0060000
        k(  100) = (   0.0500000   0.2000000  -0.5000000), wk =   0.0030000
        k(  101) = (   0.0500000   0.2500000   0.2500000), wk =   0.0030000
        k(  102) = (   0.0500000   0.2500000   0.3000000), wk =   0.0060000
        k(  103) = (   0.0500000   0.2500000   0.3500000), wk =   0.0060000
        k(  104) = (   0.0500000   0.2500000   0.4000000), wk =   0.0060000
        k(  105) = (   0.0500000   0.2500000   0.4500000), wk =   0.0060000
        k(  106) = (   0.0500000   0.2500000  -0.5000000), wk =   0.0030000
        k(  107) = (   0.0500000   0.3000000   0.3000000), wk =   0.0030000
        k(  108) = (   0.0500000   0.3000000   0.3500000), wk =   0.0060000
        k(  109) = (   0.0500000   0.3000000   0.4000000), wk =   0.0060000
        k(  110) = (   0.0500000   0.3000000   0.4500000), wk =   0.0060000
        k(  111) = (   0.0500000   0.3000000  -0.5000000), wk =   0.0030000
        k(  112) = (   0.0500000   0.3500000   0.3500000), wk =   0.0030000
        k(  113) = (   0.0500000   0.3500000   0.4000000), wk =   0.0060000
        k(  114) = (   0.0500000   0.3500000   0.4500000), wk =   0.0060000
        k(  115) = (   0.0500000   0.3500000  -0.5000000), wk =   0.0030000
        k(  116) = (   0.0500000   0.4000000   0.4000000), wk =   0.0030000
        k(  117) = (   0.0500000   0.4000000   0.4500000), wk =   0.0060000
        k(  118) = (   0.0500000   0.4000000  -0.5000000), wk =   0.0030000
        k(  119) = (   0.0500000   0.4500000   0.4500000), wk =   0.0030000
        k(  120) = (   0.0500000   0.4500000  -0.5000000), wk =   0.0030000
        k(  121) = (   0.0500000  -0.5000000  -0.5000000), wk =   0.0007500
        k(  122) = (   0.1000000   0.1000000   0.1000000), wk =   0.0010000
        k(  123) = (   0.1000000   0.1000000   0.1500000), wk =   0.0030000
        k(  124) = (   0.1000000   0.1000000   0.2000000), wk =   0.0030000
        k(  125) = (   0.1000000   0.1000000   0.2500000), wk =   0.0030000
        k(  126) = (   0.1000000   0.1000000   0.3000000), wk =   0.0030000
        k(  127) = (   0.1000000   0.1000000   0.3500000), wk =   0.0030000
        k(  128) = (   0.1000000   0.1000000   0.4000000), wk =   0.0030000
        k(  129) = (   0.1000000   0.1000000   0.4500000), wk =   0.0030000
        k(  130) = (   0.1000000   0.1000000  -0.5000000), wk =   0.0015000
        k(  131) = (   0.1000000   0.1500000   0.1500000), wk =   0.0030000
        k(  132) = (   0.1000000   0.1500000   0.2000000), wk =   0.0060000
        k(  133) = (   0.1000000   0.1500000   0.2500000), wk =   0.0060000
        k(  134) = (   0.1000000   0.1500000   0.3000000), wk =   0.0060000
        k(  135) = (   0.1000000   0.1500000   0.3500000), wk =   0.0060000
        k(  136) = (   0.1000000   0.1500000   0.4000000), wk =   0.0060000
        k(  137) = (   0.1000000   0.1500000   0.4500000), wk =   0.0060000
        k(  138) = (   0.1000000   0.1500000  -0.5000000), wk =   0.0030000
        k(  139) = (   0.1000000   0.2000000   0.2000000), wk =   0.0030000
        k(  140) = (   0.1000000   0.2000000   0.2500000), wk =   0.0060000
        k(  141) = (   0.1000000   0.2000000   0.3000000), wk =   0.0060000
        k(  142) = (   0.1000000   0.2000000   0.3500000), wk =   0.0060000
        k(  143) = (   0.1000000   0.2000000   0.4000000), wk =   0.0060000
        k(  144) = (   0.1000000   0.2000000   0.4500000), wk =   0.0060000
        k(  145) = (   0.1000000   0.2000000  -0.5000000), wk =   0.0030000
        k(  146) = (   0.1000000   0.2500000   0.2500000), wk =   0.0030000
        k(  147) = (   0.1000000   0.2500000   0.3000000), wk =   0.0060000
        k(  148) = (   0.1000000   0.2500000   0.3500000), wk =   0.0060000
        k(  149) = (   0.1000000   0.2500000   0.4000000), wk =   0.0060000
        k(  150) = (   0.1000000   0.2500000   0.4500000), wk =   0.0060000
        k(  151) = (   0.1000000   0.2500000  -0.5000000), wk =   0.0030000
        k(  152) = (   0.1000000   0.3000000   0.3000000), wk =   0.0030000
        k(  153) = (   0.1000000   0.3000000   0.3500000), wk =   0.0060000
        k(  154) = (   0.1000000   0.3000000   0.4000000), wk =   0.0060000
        k(  155) = (   0.1000000   0.3000000   0.4500000), wk =   0.0060000
        k(  156) = (   0.1000000   0.3000000  -0.5000000), wk =   0.0030000
        k(  157) = (   0.1000000   0.3500000   0.3500000), wk =   0.0030000
        k(  158) = (   0.1000000   0.3500000   0.4000000), wk =   0.0060000
        k(  159) = (   0.1000000   0.3500000   0.4500000), wk =   0.0060000
        k(  160) = (   0.1000000   0.3500000  -0.5000000), wk =   0.0030000
        k(  161) = (   0.1000000   0.4000000   0.4000000), wk =   0.0030000
        k(  162) = (   0.1000000   0.4000000   0.4500000), wk =   0.0060000
        k(  163) = (   0.1000000   0.4000000  -0.5000000), wk =   0.0030000
        k(  164) = (   0.1000000   0.4500000   0.4500000), wk =   0.0030000
        k(  165) = (   0.1000000   0.4500000  -0.5000000), wk =   0.0030000
        k(  166) = (   0.1000000  -0.5000000  -0.5000000), wk =   0.0007500
        k(  167) = (   0.1500000   0.1500000   0.1500000), wk =   0.0010000
        k(  168) = (   0.1500000   0.1500000   0.2000000), wk =   0.0030000
        k(  169) = (   0.1500000   0.1500000   0.2500000), wk =   0.0030000
        k(  170) = (   0.1500000   0.1500000   0.3000000), wk =   0.0030000
        k(  171) = (   0.1500000   0.1500000   0.3500000), wk =   0.0030000
        k(  172) = (   0.1500000   0.1500000   0.4000000), wk =   0.0030000
        k(  173) = (   0.1500000   0.1500000   0.4500000), wk =   0.0030000
        k(  174) = (   0.1500000   0.1500000  -0.5000000), wk =   0.0015000
        k(  175) = (   0.1500000   0.2000000   0.2000000), wk =   0.0030000
        k(  176) = (   0.1500000   0.2000000   0.2500000), wk =   0.0060000
        k(  177) = (   0.1500000   0.2000000   0.3000000), wk =   0.0060000
        k(  178) = (   0.1500000   0.2000000   0.3500000), wk =   0.0060000
        k(  179) = (   0.1500000   0.2000000   0.4000000), wk =   0.0060000
        k(  180) = (   0.1500000   0.2000000   0.4500000), wk =   0.0060000
        k(  181) = (   0.1500000   0.2000000  -0.5000000), wk =   0.0030000
        k(  182) = (   0.1500000   0.2500000   0.2500000), wk =   0.0030000
        k(  183) = (   0.1500000   0.2500000   0.3000000), wk =   0.0060000
        k(  184) = (   0.1500000   0.2500000   0.3500000), wk =   0.0060000
        k(  185) = (   0.1500000   0.2500000   0.4000000), wk =   0.0060000
        k(  186) = (   0.1500000   0.2500000   0.4500000), wk =   0.0060000
        k(  187) = (   0.1500000   0.2500000  -0.5000000), wk =   0.0030000
        k(  188) = (   0.1500000   0.3000000   0.3000000), wk =   0.0030000
        k(  189) = (   0.1500000   0.3000000   0.3500000), wk =   0.0060000
        k(  190) = (   0.1500000   0.3000000   0.4000000), wk =   0.0060000
        k(  191) = (   0.1500000   0.3000000   0.4500000), wk =   0.0060000
        k(  192) = (   0.1500000   0.3000000  -0.5000000), wk =   0.0030000
        k(  193) = (   0.1500000   0.3500000   0.3500000), wk =   0.0030000
        k(  194) = (   0.1500000   0.3500000   0.4000000), wk =   0.0060000
        k(  195) = (   0.1500000   0.3500000   0.4500000), wk =   0.0060000
        k(  196) = (   0.1500000   0.3500000  -0.5000000), wk =   0.0030000
        k(  197) = (   0.1500000   0.4000000   0.4000000), wk =   0.0030000
        k(  198) = (   0.1500000   0.4000000   0.4500000), wk =   0.0060000
        k(  199) = (   0.1500000   0.4000000  -0.5000000), wk =   0.0030000
        k(  200) = (   0.1500000   0.4500000   0.4500000), wk =   0.0030000
        k(  201) = (   0.1500000   0.4500000  -0.5000000), wk =   0.0030000
        k(  202) = (   0.1500000  -0.5000000  -0.5000000), wk =   0.0007500
        k(  203) = (   0.2000000   0.2000000   0.2000000), wk =   0.0010000
        k(  204) = (   0.2000000   0.2000000   0.2500000), wk =   0.0030000
        k(  205) = (   0.2000000   0.2000000   0.3000000), wk =   0.0030000
        k(  206) = (   0.2000000   0.2000000   0.3500000), wk =   0.0030000
        k(  207) = (   0.2000000   0.2000000   0.4000000), wk =   0.0030000
        k(  208) = (   0.2000000   0.2000000   0.4500000), wk =   0.0030000
        k(  209) = (   0.2000000   0.2000000  -0.5000000), wk =   0.0015000
        k(  210) = (   0.2000000   0.2500000   0.2500000), wk =   0.0030000
        k(  211) = (   0.2000000   0.2500000   0.3000000), wk =   0.0060000
        k(  212) = (   0.2000000   0.2500000   0.3500000), wk =   0.0060000
        k(  213) = (   0.2000000   0.2500000   0.4000000), wk =   0.0060000
        k(  214) = (   0.2000000   0.2500000   0.4500000), wk =   0.0060000
        k(  215) = (   0.2000000   0.2500000  -0.5000000), wk =   0.0030000
        k(  216) = (   0.2000000   0.3000000   0.3000000), wk =   0.0030000
        k(  217) = (   0.2000000   0.3000000   0.3500000), wk =   0.0060000
        k(  218) = (   0.2000000   0.3000000   0.4000000), wk =   0.0060000
        k(  219) = (   0.2000000   0.3000000   0.4500000), wk =   0.0060000
        k(  220) = (   0.2000000   0.3000000  -0.5000000), wk =   0.0030000
        k(  221) = (   0.2000000   0.3500000   0.3500000), wk =   0.0030000
        k(  222) = (   0.2000000   0.3500000   0.4000000), wk =   0.0060000
        k(  223) = (   0.2000000   0.3500000   0.4500000), wk =   0.0060000
        k(  224) = (   0.2000000   0.3500000  -0.5000000), wk =   0.0030000
        k(  225) = (   0.2000000   0.4000000   0.4000000), wk =   0.0030000
        k(  226) = (   0.2000000   0.4000000   0.4500000), wk =   0.0060000
        k(  227) = (   0.2000000   0.4000000  -0.5000000), wk =   0.0030000
        k(  228) = (   0.2000000   0.4500000   0.4500000), wk =   0.0030000
        k(  229) = (   0.2000000   0.4500000  -0.5000000), wk =   0.0030000
        k(  230) = (   0.2000000  -0.5000000  -0.5000000), wk =   0.0007500
        k(  231) = (   0.2500000   0.2500000   0.2500000), wk =   0.0010000
        k(  232) = (   0.2500000   0.2500000   0.3000000), wk =   0.0030000
        k(  233) = (   0.2500000   0.2500000   0.3500000), wk =   0.0030000
        k(  234) = (   0.2500000   0.2500000   0.4000000), wk =   0.0030000
        k(  235) = (   0.2500000   0.2500000   0.4500000), wk =   0.0030000
        k(  236) = (   0.2500000   0.2500000  -0.5000000), wk =   0.0015000
        k(  237) = (   0.2500000   0.3000000   0.3000000), wk =   0.0030000
        k(  238) = (   0.2500000   0.3000000   0.3500000), wk =   0.0060000
        k(  239) = (   0.2500000   0.3000000   0.4000000), wk =   0.0060000
        k(  240) = (   0.2500000   0.3000000   0.4500000), wk =   0.0060000
        k(  241) = (   0.2500000   0.3000000  -0.5000000), wk =   0.0030000
        k(  242) = (   0.2500000   0.3500000   0.3500000), wk =   0.0030000
        k(  243) = (   0.2500000   0.3500000   0.4000000), wk =   0.0060000
        k(  244) = (   0.2500000   0.3500000   0.4500000), wk =   0.0060000
        k(  245) = (   0.2500000   0.3500000  -0.5000000), wk =   0.0030000
        k(  246) = (   0.2500000   0.4000000   0.4000000), wk =   0.0030000
        k(  247) = (   0.2500000   0.4000000   0.4500000), wk =   0.0060000
        k(  248) = (   0.2500000   0.4000000  -0.5000000), wk =   0.0030000
        k(  249) = (   0.2500000   0.4500000   0.4500000), wk =   0.0030000
        k(  250) = (   0.2500000   0.4500000  -0.5000000), wk =   0.0030000
        k(  251) = (   0.2500000  -0.5000000  -0.5000000), wk =   0.0007500
        k(  252) = (   0.3000000   0.3000000   0.3000000), wk =   0.0010000
        k(  253) = (   0.3000000   0.3000000   0.3500000), wk =   0.0030000
        k(  254) = (   0.3000000   0.3000000   0.4000000), wk =   0.0030000
        k(  255) = (   0.3000000   0.3000000   0.4500000), wk =   0.0030000
        k(  256) = (   0.3000000   0.3000000  -0.5000000), wk =   0.0015000
        k(  257) = (   0.3000000   0.3500000   0.3500000), wk =   0.0030000
        k(  258) = (   0.3000000   0.3500000   0.4000000), wk =   0.0060000
        k(  259) = (   0.3000000   0.3500000   0.4500000), wk =   0.0060000
        k(  260) = (   0.3000000   0.3500000  -0.5000000), wk =   0.0030000
        k(  261) = (   0.3000000   0.4000000   0.4000000), wk =   0.0030000
        k(  262) = (   0.3000000   0.4000000   0.4500000), wk =   0.0060000
        k(  263) = (   0.3000000   0.4000000  -0.5000000), wk =   0.0030000
        k(  264) = (   0.3000000   0.4500000   0.4500000), wk =   0.0030000
        k(  265) = (   0.3000000   0.4500000  -0.5000000), wk =   0.0030000
        k(  266) = (   0.3000000  -0.5000000  -0.5000000), wk =   0.0007500
        k(  267) = (   0.3500000   0.3500000   0.3500000), wk =   0.0010000
        k(  268) = (   0.3500000   0.3500000   0.4000000), wk =   0.0030000
        k(  269) = (   0.3500000   0.3500000   0.4500000), wk =   0.0030000
        k(  270) = (   0.3500000   0.3500000  -0.5000000), wk =   0.0015000
        k(  271) = (   0.3500000   0.4000000   0.4000000), wk =   0.0030000
        k(  272) = (   0.3500000   0.4000000   0.4500000), wk =   0.0060000
        k(  273) = (   0.3500000   0.4000000  -0.5000000), wk =   0.0030000
        k(  274) = (   0.3500000   0.4500000   0.4500000), wk =   0.0030000
        k(  275) = (   0.3500000   0.4500000  -0.5000000), wk =   0.0030000
        k(  276) = (   0.3500000  -0.5000000  -0.5000000), wk =   0.0007500
        k(  277) = (   0.4000000   0.4000000   0.4000000), wk =   0.0010000
        k(  278) = (   0.4000000   0.4000000   0.4500000), wk =   0.0030000
        k(  279) = (   0.4000000   0.4000000  -0.5000000), wk =   0.0015000
        k(  280) = (   0.4000000   0.4500000   0.4500000), wk =   0.0030000
        k(  281) = (   0.4000000   0.4500000  -0.5000000), wk =   0.0030000
        k(  282) = (   0.4000000  -0.5000000  -0.5000000), wk =   0.0007500
        k(  283) = (   0.4500000   0.4500000   0.4500000), wk =   0.0010000
        k(  284) = (   0.4500000   0.4500000  -0.5000000), wk =   0.0015000
        k(  285) = (   0.4500000  -0.5000000  -0.5000000), wk =   0.0007500
        k(  286) = (  -0.5000000  -0.5000000  -0.5000000), wk =   0.0001250

     Dense  grid:    95433 G-vectors     FFT dimensions: (  60,  60,  60)

     Smooth grid:    18325 G-vectors     FFT dimensions: (  36,  36,  36)

     Dynamical RAM for                 wfc:       0.09 MB

     Dynamical RAM for     wfc (w. buffer):      50.19 MB

     Dynamical RAM for           str. fact:       0.18 MB

     Dynamical RAM for           local pot:       0.00 MB

     Dynamical RAM for          nlocal pot:       0.16 MB

     Dynamical RAM for                qrad:       2.64 MB

     Dynamical RAM for          rho,v,vnew:       2.41 MB

     Dynamical RAM for               rhoin:       0.80 MB

     Dynamical RAM for            rho*nmix:       5.82 MB

     Dynamical RAM for           G-vectors:       0.70 MB

     Dynamical RAM for          h,s,v(r/c):       0.07 MB

     Dynamical RAM for          <psi|beta>:       0.01 MB

     Dynamical RAM for                 psi:       0.18 MB

     Dynamical RAM for                hpsi:       0.18 MB

     Dynamical RAM for                spsi:       0.18 MB

     Dynamical RAM for      wfcinit/wfcrot:       0.18 MB

     Dynamical RAM for           addusdens:      34.40 MB

     Dynamical RAM for          addusforce:      34.78 MB

     Dynamical RAM for         addusstress:      36.86 MB

     Estimated static dynamical RAM per process >      58.76 MB

     Estimated max dynamical RAM per process >     101.44 MB

     Estimated total dynamical RAM >     811.54 MB
     Generating pointlists ...
     new r_m :   0.3572 (alat units)  1.9362 (a.u.) for type    1

     Initial potential from superposition of free atoms

     starting charge      31.9991, renormalised to      32.0000
     Starting wfcs are   20 randomized atomic wfcs
     Checking if some PAW data can be deallocated... 

     total cpu time spent up to now is        2.6 secs

     per-process dynamical memory:   240.6 Mb

     Self-consistent Calculation

     iteration #  1     ecut=    90.00 Ry     beta= 0.20
     Davidson diagonalization with overlap

---- Real-time Memory Report at c_bands before calling an iterative solver
           309 MiB given to the printing process from OS
           235 MiB allocation reported by mallinfo(arena+hblkhd)
        445981 MiB available memory on the node where the printing process lives
------------------
     ethr =  1.00E-02,  avg # of iterations =  3.6

     total cpu time spent up to now is        7.8 secs

     total energy              =    -658.21824255 Ry
     estimated scf accuracy    <       0.53933289 Ry

     total magnetization       =     6.42 Bohr mag/cell
     absolute magnetization    =     6.48 Bohr mag/cell

     iteration #  2     ecut=    90.00 Ry     beta= 0.20
     Davidson diagonalization with overlap

---- Real-time Memory Report at c_bands before calling an iterative solver
           344 MiB given to the printing process from OS
           270 MiB allocation reported by mallinfo(arena+hblkhd)
        445701 MiB available memory on the node where the printing process lives
------------------
     ethr =  1.69E-03,  avg # of iterations =  1.1

     negative rho (up, down):  0.000E+00 6.807E-04

     total cpu time spent up to now is       11.8 secs

     total energy              =    -658.47290417 Ry
     estimated scf accuracy    <       0.36767214 Ry

     total magnetization       =     6.20 Bohr mag/cell
     absolute magnetization    =     6.31 Bohr mag/cell

     iteration #  3     ecut=    90.00 Ry     beta= 0.20
     Davidson diagonalization with overlap

---- Real-time Memory Report at c_bands before calling an iterative solver
           344 MiB given to the printing process from OS
           270 MiB allocation reported by mallinfo(arena+hblkhd)
        445699 MiB available memory on the node where the printing process lives
------------------
     ethr =  1.15E-03,  avg # of iterations =  1.6

     negative rho (up, down):  0.000E+00 8.383E-04

     total cpu time spent up to now is       15.9 secs

     total energy              =    -658.55488925 Ry
     estimated scf accuracy    <       0.04952487 Ry

     total magnetization       =     5.10 Bohr mag/cell
     absolute magnetization    =     5.43 Bohr mag/cell

     iteration #  4     ecut=    90.00 Ry     beta= 0.20
     Davidson diagonalization with overlap

---- Real-time Memory Report at c_bands before calling an iterative solver
           344 MiB given to the printing process from OS
           270 MiB allocation reported by mallinfo(arena+hblkhd)
        445698 MiB available memory on the node where the printing process lives
------------------
     ethr =  1.55E-04,  avg # of iterations =  2.9

     negative rho (up, down):  0.000E+00 3.608E-04

     total cpu time spent up to now is       20.4 secs

     total energy              =    -658.49535221 Ry
     estimated scf accuracy    <       0.14111279 Ry

     total magnetization       =     5.10 Bohr mag/cell
     absolute magnetization    =     5.40 Bohr mag/cell

     iteration #  5     ecut=    90.00 Ry     beta= 0.20
     Davidson diagonalization with overlap

---- Real-time Memory Report at c_bands before calling an iterative solver
           344 MiB given to the printing process from OS
           270 MiB allocation reported by mallinfo(arena+hblkhd)
        445697 MiB available memory on the node where the printing process lives
------------------
     ethr =  1.55E-04,  avg # of iterations =  3.5

     negative rho (up, down):  0.000E+00 3.860E-04

     total cpu time spent up to now is       26.3 secs

     total energy              =    -658.53801464 Ry
     estimated scf accuracy    <       0.02847243 Ry

     total magnetization       =     4.58 Bohr mag/cell
     absolute magnetization    =     4.93 Bohr mag/cell

     iteration #  6     ecut=    90.00 Ry     beta= 0.20
     Davidson diagonalization with overlap

---- Real-time Memory Report at c_bands before calling an iterative solver
           345 MiB given to the printing process from OS
           271 MiB allocation reported by mallinfo(arena+hblkhd)
        445696 MiB available memory on the node where the printing process lives
------------------
     ethr =  8.90E-05,  avg # of iterations =  1.0

     negative rho (up, down):  0.000E+00 4.394E-04

     total cpu time spent up to now is       30.1 secs

     total energy              =    -658.53578195 Ry
     estimated scf accuracy    <       0.02675877 Ry

     total magnetization       =     4.75 Bohr mag/cell
     absolute magnetization    =     5.08 Bohr mag/cell

     iteration #  7     ecut=    90.00 Ry     beta= 0.20
     Davidson diagonalization with overlap

---- Real-time Memory Report at c_bands before calling an iterative solver
           345 MiB given to the printing process from OS
           271 MiB allocation reported by mallinfo(arena+hblkhd)
        445694 MiB available memory on the node where the printing process lives
------------------
     ethr =  8.36E-05,  avg # of iterations =  1.0

     negative rho (up, down):  0.000E+00 1.500E-04

     total cpu time spent up to now is       33.9 secs

     total energy              =    -658.53766127 Ry
     estimated scf accuracy    <       0.02380891 Ry

     total magnetization       =     4.89 Bohr mag/cell
     absolute magnetization    =     5.22 Bohr mag/cell

     iteration #  8     ecut=    90.00 Ry     beta= 0.20
     Davidson diagonalization with overlap

---- Real-time Memory Report at c_bands before calling an iterative solver
           345 MiB given to the printing process from OS
           271 MiB allocation reported by mallinfo(arena+hblkhd)
        445693 MiB available memory on the node where the printing process lives
------------------
     ethr =  7.44E-05,  avg # of iterations =  1.0

     negative rho (up, down):  0.000E+00 9.533E-05

     total cpu time spent up to now is       37.7 secs

     total energy              =    -658.53192736 Ry
     estimated scf accuracy    <       0.02040905 Ry

     total magnetization       =     4.50 Bohr mag/cell
     absolute magnetization    =     4.83 Bohr mag/cell

     iteration #  9     ecut=    90.00 Ry     beta= 0.20
     Davidson diagonalization with overlap

---- Real-time Memory Report at c_bands before calling an iterative solver
           345 MiB given to the printing process from OS
           271 MiB allocation reported by mallinfo(arena+hblkhd)
        445692 MiB available memory on the node where the printing process lives
------------------
     ethr =  6.38E-05,  avg # of iterations =  2.7

     negative rho (up, down):  0.000E+00 9.956E-05

     total cpu time spent up to now is       42.5 secs

     total energy              =    -658.53844675 Ry
     estimated scf accuracy    <       0.00232745 Ry

     total magnetization       =     4.42 Bohr mag/cell
     absolute magnetization    =     4.67 Bohr mag/cell

     iteration # 10     ecut=    90.00 Ry     beta= 0.20
     Davidson diagonalization with overlap

---- Real-time Memory Report at c_bands before calling an iterative solver
           345 MiB given to the printing process from OS
           271 MiB allocation reported by mallinfo(arena+hblkhd)
        445691 MiB available memory on the node where the printing process lives
------------------
     ethr =  7.27E-06,  avg # of iterations =  1.8

     negative rho (up, down):  0.000E+00 1.022E-04

     total cpu time spent up to now is       46.7 secs

     total energy              =    -658.53875914 Ry
     estimated scf accuracy    <       0.00014593 Ry

     total magnetization       =     4.46 Bohr mag/cell
     absolute magnetization    =     4.72 Bohr mag/cell

     iteration # 11     ecut=    90.00 Ry     beta= 0.20
     Davidson diagonalization with overlap

---- Real-time Memory Report at c_bands before calling an iterative solver
           345 MiB given to the printing process from OS
           271 MiB allocation reported by mallinfo(arena+hblkhd)
        445689 MiB available memory on the node where the printing process lives
------------------
     ethr =  4.56E-07,  avg # of iterations =  3.5

     negative rho (up, down):  0.000E+00 1.012E-04

     total cpu time spent up to now is       52.0 secs

     total energy              =    -658.53881929 Ry
     estimated scf accuracy    <       0.00014382 Ry

     total magnetization       =     4.45 Bohr mag/cell
     absolute magnetization    =     4.71 Bohr mag/cell

     iteration # 12     ecut=    90.00 Ry     beta= 0.20
     Davidson diagonalization with overlap

---- Real-time Memory Report at c_bands before calling an iterative solver
           345 MiB given to the printing process from OS
           271 MiB allocation reported by mallinfo(arena+hblkhd)
        445689 MiB available memory on the node where the printing process lives
------------------
     ethr =  4.49E-07,  avg # of iterations =  1.6

     negative rho (up, down):  0.000E+00 9.775E-05

     total cpu time spent up to now is       56.1 secs

     total energy              =    -658.53883280 Ry
     estimated scf accuracy    <       0.00001582 Ry

     total magnetization       =     4.45 Bohr mag/cell
     absolute magnetization    =     4.71 Bohr mag/cell

     iteration # 13     ecut=    90.00 Ry     beta= 0.20
     Davidson diagonalization with overlap

---- Real-time Memory Report at c_bands before calling an iterative solver
           345 MiB given to the printing process from OS
           271 MiB allocation reported by mallinfo(arena+hblkhd)
        445689 MiB available memory on the node where the printing process lives
------------------
     ethr =  4.95E-08,  avg # of iterations =  3.0

     negative rho (up, down):  0.000E+00 9.741E-05

     total cpu time spent up to now is       61.1 secs

     total energy              =    -658.53884801 Ry
     estimated scf accuracy    <       0.00000310 Ry

     total magnetization       =     4.44 Bohr mag/cell
     absolute magnetization    =     4.69 Bohr mag/cell

     iteration # 14     ecut=    90.00 Ry     beta= 0.20
     Davidson diagonalization with overlap

---- Real-time Memory Report at c_bands before calling an iterative solver
           345 MiB given to the printing process from OS
           271 MiB allocation reported by mallinfo(arena+hblkhd)
        445689 MiB available memory on the node where the printing process lives
------------------
     ethr =  9.69E-09,  avg # of iterations =  1.6

[...]
     0.0000   0.0000   0.0000   0.0000

          k = 0.3000 0.4500 0.4500 (  2311 PWs)   bands (ev):

   -67.8455 -67.8436 -34.1117 -34.1071 -33.9819 -33.9570 -33.8714 -33.8635
    15.0465  15.0972  15.7222  15.7418  16.2440  16.3265  19.2688  19.2888
    19.4393  19.4460  22.7999  23.4300

     occupation numbers 
     1.0000   1.0000   1.0000   1.0000   1.0000   1.0000   1.0000   1.0000
     1.0000   1.0000   1.0000   1.0000   1.0000   1.0000   0.0000   0.0000
     0.0000   0.0000   0.0000   0.0000

          k = 0.3000 0.4500-0.5000 (  2306 PWs)   bands (ev):

   -67.8445 -67.8444 -34.1095 -34.1095 -33.9687 -33.9687 -33.8693 -33.8693
    15.0699  15.0699  15.7182  15.7182  16.3253  16.3253  19.2871  19.2871
    19.4517  19.4517  23.1812  23.1812

     occupation numbers 
     1.0000   1.0000   1.0000   1.0000   1.0000   1.0000   1.0000   1.0000
     1.0000   1.0000   1.0000   1.0000   1.0000   1.0000   0.0000   0.0000
     0.0000   0.0000   0.0000   0.0000

          k = 0.3000-0.5000-0.5000 (  2300 PWs)   bands (ev):

   -67.8443 -67.8443 -34.1093 -34.1093 -33.9676 -33.9675 -33.8719 -33.8719
    15.0667  15.0667  15.7039  15.7039  16.3669  16.3669  19.2973  19.2973
    19.4592  19.4593  23.3019  23.3019

     occupation numbers 
     1.0000   1.0000   1.0000   1.0000   1.0000   1.0000   1.0000   1.0000
     1.0000   1.0000   1.0000   1.0000   1.0000   1.0000   0.0000   0.0000
     0.0000   0.0000   0.0000   0.0000

          k = 0.3500 0.3500 0.3500 (  2311 PWs)   bands (ev):

   -67.8516 -67.8397 -34.1105 -34.0647 -34.0647 -33.8919 -33.8919 -33.8461
    14.7725  15.3895  15.8163  15.8163  15.9637  15.9637  19.2526  19.2526
    19.3225  19.3225  21.5480  25.1186

     occupation numbers 
     1.0000   1.0000   1.0000   1.0000   1.0000   1.0000   1.0000   1.0000
     1.0000   1.0000   1.0000   1.0000   1.0000   1.0000   0.0000   0.0000
     0.0000   0.0000   0.0000   0.0000

          k = 0.3500 0.3500 0.4000 (  2305 PWs)   bands (ev):

   -67.8492 -67.8411 -34.1089 -34.0794 -34.0366 -33.9190 -33.8851 -33.8522
    15.0172  15.3330  15.7783  15.8176  15.8752  16.0516  19.2449  19.3056
    19.3388  19.3853  21.9821  24.3892

     occupation numbers 
     1.0000   1.0000   1.0000   1.0000   1.0000   1.0000   1.0000   1.0000
     1.0000   1.0000   1.0000   1.0000   1.0000   1.0000   0.0000   0.0000
     0.0000   0.0000   0.0000   0.0000

          k = 0.3500 0.3500 0.4500 (  2307 PWs)   bands (ev):

   -67.8468 -67.8427 -34.1056 -34.0912 -34.0072 -33.9477 -33.8769 -33.8598
    15.1506  15.2712  15.7627  15.8106  15.9138  16.0819  19.2517  19.2863
    19.3983  19.4225  22.4647  23.6671

     occupation numbers 
     1.0000   1.0000   1.0000   1.0000   1.0000   1.0000   1.0000   1.0000
     1.0000   1.0000   1.0000   1.0000   1.0000   1.0000   0.0000   0.0000
     0.0000   0.0000   0.0000   0.0000

          k = 0.3500 0.3500-0.5000 (  2312 PWs)   bands (ev):

   -67.8447 -67.8446 -34.0999 -34.0999 -33.9774 -33.9774 -33.8683 -33.8683
    15.2169  15.2169  15.7729  15.7729  16.0278  16.0278  19.2672  19.2672
    19.4272  19.4272  23.0215  23.0215

     occupation numbers 
     1.0000   1.0000   1.0000   1.0000   1.0000   1.0000   1.0000   1.0000
     1.0000   1.0000   1.0000   1.0000   1.0000   1.0000   0.0000   0.0000
     0.0000   0.0000   0.0000   0.0000

          k = 0.3500 0.4000 0.4000 (  2307 PWs)   bands (ev):

   -67.8474 -67.8418 -34.1034 -34.0738 -34.0296 -33.9288 -33.8954 -33.8617
    15.2205  15.3308  15.7347  15.8192  15.8490  16.0520  19.2942  19.3401
    19.3700  19.4042  22.4468  24.5656

     occupation numbers 
     1.0000   1.0000   1.0000   1.0000   1.0000   1.0000   1.0000   1.0000
     1.0000   1.0000   1.0000   1.0000   1.0000   1.0000   0.0000   0.0000
     0.0000   0.0000   0.0000   0.0000

          k = 0.3500 0.4000 0.4500 (  2308 PWs)   bands (ev):

   -67.8456 -67.8428 -34.0972 -34.0811 -34.0062 -33.9518 -33.8915 -33.8722
    15.2903  15.3123  15.7207  15.7844  15.9265  16.0784  19.3127  19.3380
    19.4154  19.4331  22.9491  24.0991

     occupation numbers 
     1.0000   1.0000   1.0000   1.0000   1.0000   1.0000   1.0000   1.0000
     1.0000   1.0000   1.0000   1.0000   1.0000   1.0000   0.0000   0.0000
     0.0000   0.0000   0.0000   0.0000

          k = 0.3500 0.4000-0.5000 (  2306 PWs)   bands (ev):

   -67.8441 -67.8441 -34.0898 -34.0897 -33.9790 -33.9789 -33.8826 -33.8826
    15.3017  15.3018  15.7383  15.7383  16.0365  16.0366  19.3265  19.3265
    19.4391  19.4391  23.5050  23.5050

     occupation numbers 
     1.0000   1.0000   1.0000   1.0000   1.0000   1.0000   1.0000   1.0000
     1.0000   1.0000   1.0000   1.0000   1.0000   1.0000   0.0000   0.0000
     0.0000   0.0000   0.0000   0.0000

          k = 0.3500 0.4500 0.4500 (  2311 PWs)   bands (ev):

   -67.8446 -67.8432 -34.0899 -34.0797 -33.9946 -33.9615 -33.8976 -33.8842
    15.3194  15.3267  15.6879  15.7295  16.0299  16.1188  19.3437  19.3576
    19.4416  19.4506  23.4414  24.2178

     occupation numbers 
     1.0000   1.0000   1.0000   1.0000   1.0000   1.0000   1.0000   1.0000
     1.0000   1.0000   1.0000   1.0000   1.0000   1.0000   0.0000   0.0000
     0.0000   0.0000   0.0000   0.0000

          k = 0.3500 0.4500-0.5000 (  2308 PWs)   bands (ev):

   -67.8438 -67.8437 -34.0837 -34.0837 -33.9775 -33.9775 -33.8938 -33.8938
    15.3244  15.3244  15.6917  15.6917  16.1091  16.1091  19.3567  19.3567
    19.4567  19.4568  23.9141  23.9141

     occupation numbers 
     1.0000   1.0000   1.0000   1.0000   1.0000   1.0000   1.0000   1.0000
     1.0000   1.0000   1.0000   1.0000   1.0000   1.0000   0.0000   0.0000
     0.0000   0.0000   0.0000   0.0000

          k = 0.3500-0.5000-0.5000 (  2308 PWs)   bands (ev):

   -67.8437 -67.8436 -34.0817 -34.0817 -33.9763 -33.9762 -33.8983 -33.8983
    15.3275  15.3276  15.6727  15.6727  16.1437  16.1437  19.3647  19.3647
    19.4656  19.4656  24.0989  24.0989

     occupation numbers 
     1.0000   1.0000   1.0000   1.0000   1.0000   1.0000   1.0000   1.0000
     1.0000   1.0000   1.0000   1.0000   1.0000   1.0000   0.0000   0.0000
     0.0000   0.0000   0.0000   0.0000

          k = 0.4000 0.4000 0.4000 (  2308 PWs)   bands (ev):

   -67.8459 -67.8422 -34.0926 -34.0448 -34.0448 -33.9234 -33.9234 -33.8753
    15.3861  15.4730  15.7116  15.7116  15.9163  15.9163  19.3706  19.3706
    19.4001  19.4001  22.9630  25.3707

     occupation numbers 
     1.0000   1.0000   1.0000   1.0000   1.0000   1.0000   1.0000   1.0000
     1.0000   1.0000   1.0000   1.0000   1.0000   1.0000   0.0000   0.0000
     0.0000   0.0000   0.0000   0.0000

          k = 0.4000 0.4000 0.4500 (  2312 PWs)   bands (ev):

   -67.8447 -67.8427 -34.0819 -34.0585 -34.0145 -33.9530 -33.9144 -33.8893
    15.4129  15.5023  15.7143  15.8022  15.8145  15.9583  19.3768  19.3935
    19.4233  19.4381  23.5110  24.7486

     occupation numbers 
     1.0000   1.0000   1.0000   1.0000   1.0000   1.0000   1.0000   1.0000
     1.0000   1.0000   1.0000   1.0000   1.0000   1.0000   0.0000   0.0000
     0.0000   0.0000   0.0000   0.0000

          k = 0.4000 0.4000-0.5000 (  2308 PWs)   bands (ev):

   -67.8436 -67.8436 -34.0707 -34.0707 -33.9837 -33.9836 -33.9027 -33.9027
    15.4492  15.4492  15.7476  15.7476  15.9227  15.9227  19.3852  19.3852
    19.4467  19.4467  24.1074  24.1074

     occupation numbers 
     1.0000   1.0000   1.0000   1.0000   1.0000   1.0000   1.0000   1.0000
     1.0000   1.0000   1.0000   1.0000   1.0000   1.0000   0.0000   0.0000
     0.0000   0.0000   0.0000   0.0000

          k = 0.4000 0.4500 0.4500 (  2305 PWs)   bands (ev):

   -67.8438 -67.8429 -34.0683 -34.0501 -34.0069 -33.9618 -33.9261 -33.9058
    15.4663  15.5638  15.6750  15.7674  15.8597  15.9512  19.4068  19.4156
    19.4458  19.4535  24.0833  25.0442

     occupation numbers 
     1.0000   1.0000   1.0000   1.0000   1.0000   1.0000   1.0000   1.0000
     1.0000   1.0000   1.0000   1.0000   1.0000   1.0000   0.0000   0.0000
     0.0000   0.0000   0.0000   0.0000

          k = 0.4000 0.4500-0.5000 (  2302 PWs)   bands (ev):

   -67.8432 -67.8432 -34.0569 -34.0569 -33.9842 -33.9842 -33.9197 -33.9197
    15.5173  15.5173  15.7018  15.7019  15.9380  15.9380  19.4154  19.4154
    19.4615  19.4615  24.6519  24.6519

     occupation numbers 
     1.0000   1.0000   1.0000   1.0000   1.0000   1.0000   1.0000   1.0000
     1.0000   1.0000   1.0000   1.0000   1.0000   1.0000   0.0000   0.0000
     0.0000   0.0000   0.0000   0.0000

          k = 0.4000-0.5000-0.5000 (  2296 PWs)   bands (ev):

   -67.8431 -67.8431 -34.0519 -34.0519 -33.9831 -33.9831 -33.9271 -33.9271
    15.5435  15.5436  15.6635  15.6635  15.9648  15.9648  19.4221  19.4222
    19.4707  19.4707  24.9334  24.9334

     occupation numbers 
     1.0000   1.0000   1.0000   1.0000   1.0000   1.0000   1.0000   1.0000
     1.0000   1.0000   1.0000   1.0000   1.0000   1.0000   0.0000   0.0000
     0.0000   0.0000   0.0000   0.0000

          k = 0.4500 0.4500 0.4500 (  2299 PWs)   bands (ev):

   -67.8432 -67.8428 -34.0488 -34.0192 -34.0192 -33.9564 -33.9564 -33.9266
    15.5469  15.6902  15.6902  15.7718  15.8248  15.8248  19.4500  19.4500
    19.4544  19.4544  24.7254  25.9057

     occupation numbers 
     1.0000   1.0000   1.0000   1.0000   1.0000   1.0000   1.0000   1.0000
     1.0000   1.0000   1.0000   1.0000   1.0000   1.0000   0.0000   0.0000
     0.0000   0.0000   0.0000   0.0000

          k = 0.4500 0.4500-0.5000 (  2300 PWs)   bands (ev):

   -67.8429 -67.8429 -34.0326 -34.0326 -33.9877 -33.9877 -33.9443 -33.9443
    15.6174  15.6174  15.7387  15.7388  15.8313  15.8313  19.4531  19.4531
    19.4667  19.4667  25.3595  25.3595

     occupation numbers 
     1.0000   1.0000   1.0000   1.0000   1.0000   1.0000   1.0000   1.0000
     1.0000   1.0000   1.0000   1.0000   1.0000   1.0000   0.0000   0.0000
     0.0000   0.0000   0.0000   0.0000

          k = 0.4500-0.5000-0.5000 (  2296 PWs)   bands (ev):

   -67.8428 -67.8427 -34.0208 -34.0208 -33.9876 -33.9875 -33.9576 -33.9576
    15.6831  15.6831  15.6868  15.6868  15.8298  15.8298  19.4612  19.4612
    19.4739  19.4740  25.8020  25.8020

     occupation numbers 
     1.0000   1.0000   1.0000   1.0000   1.0000   1.0000   1.0000   1.0000
     1.0000   1.0000   1.0000   1.0000   1.0000   1.0000   0.0000   0.0000
     0.0000   0.0000   0.0000   0.0000

          k =-0.5000-0.5000-0.5000 (  2320 PWs)   bands (ev):

   -67.8427 -67.8426 -33.9891 -33.9891 -33.9891 -33.9891 -33.9891 -33.9891
    15.7369  15.7369  15.7369  15.7369  15.7369  15.7369  19.4750  19.4750
    19.4750  19.4750  26.7015  26.7015

     occupation numbers 
     1.0000   1.0000   1.0000   1.0000   1.0000   1.0000   1.0000   1.0000
     1.0000   1.0000   1.0000   1.0000   1.0000   1.0000   0.0000   0.0000
     0.0000   0.0000   0.0000   0.0000

     the Fermi energy is    17.4454 ev

!    total energy              =    -658.53884844 Ry
     total all-electron energy =     -5091.131915 Ry
     estimated scf accuracy    <          8.8E-10 Ry
     smearing contrib. (-TS)   =       0.00009959 Ry
     internal energy E=F+TS    =    -658.53894803 Ry

     The total energy is F=E-TS. E is the sum of the following terms:
     one-electron contribution =    -226.16287844 Ry
     hartree contribution      =     132.46623580 Ry
     xc contribution           =     -55.47314774 Ry
     ewald contribution        =    -343.78483881 Ry
     one-center paw contrib.   =    -165.58431884 Ry
      -> PAW hartree energy AE =     182.92162241 Ry
      -> PAW hartree energy PS =    -181.62397952 Ry
      -> PAW xc energy AE      =    -110.15608459 Ry
      -> PAW xc energy PS      =      26.06628302 Ry
      -> total E_H with PAW    =     133.76387869 Ry
      -> total E_XC with PAW   =    -139.56294930 Ry

     total magnetization       =     4.44 Bohr mag/cell
     absolute magnetization    =     4.69 Bohr mag/cell

     convergence has been achieved in  17 iterations

     negative rho (up, down):  0.000E+00 9.822E-05

     Forces acting on atoms (cartesian axes, Ry/au):

     atom    1 type  1   force =     0.00000000    0.00000000    0.00000000
     atom    2 type  1   force =     0.00000000    0.00000000    0.00000000
     The non-local contrib.  to forces
     atom    1 type  1   force =     0.00000000    0.00000000    0.00000000
     atom    2 type  1   force =     0.00000000    0.00000000    0.00000000
     The ionic contribution  to forces
     atom    1 type  1   force =    -0.00000000   -0.00000000   -0.00000000
     atom    2 type  1   force =     0.00000000    0.00000000    0.00000000
     The local contribution  to forces
     atom    1 type  1   force =     0.00000000    0.00000000    0.00000000
     atom    2 type  1   force =     0.00000000    0.00000000    0.00000000
     The core correction contribution to forces
     atom    1 type  1   force =     0.00000000    0.00000000   -0.00000000
     atom    2 type  1   force =    -0.00000000   -0.00000000   -0.00000000
     The Hubbard contrib.    to forces
     atom    1 type  1   force =     0.00000000    0.00000000    0.00000000
     atom    2 type  1   force =     0.00000000    0.00000000    0.00000000
     The SCF correction term to forces
     atom    1 type  1   force =     0.00000000   -0.00000000   -0.00000000
     atom    2 type  1   force =     0.00000000    0.00000000    0.00000000

     Total force =     0.000000     Total SCF correction =     0.000000


     Computing stress (Cartesian axis) and pressure


     negative rho (up, down):  0.000E+00 9.822E-05
          total   stress  (Ry/bohr**3)                   (kbar)     P=      -71.96
  -0.00048917   0.00000000   0.00000000          -71.96        0.00        0.00
   0.00000000  -0.00048917   0.00000000            0.00      -71.96        0.00
   0.00000000   0.00000000  -0.00048917            0.00        0.00      -71.96

     kinetic stress (kbar)  95423.57      0.00      0.00
                                0.00  95423.57      0.00
                                0.00      0.00  95423.57

     local   stress (kbar)  12108.41     -0.00     -0.00
                               -0.00  12108.41      0.00
                               -0.00      0.00  12108.41

     nonloc. stress (kbar) -26161.82      0.00      0.00
                                0.00 -26161.82      0.00
                                0.00      0.00 -26161.82

     hartree stress (kbar)  40797.37      0.00      0.00
                                0.00  40797.37      0.00
                                0.00      0.00  40797.37

     exc-cor stress (kbar) -13739.73     -0.00      0.00
                               -0.00 -13739.73     -0.00
                                0.00     -0.00 -13739.73

     corecor stress (kbar)  -2619.82     -0.00     -0.00
                               -0.00  -2619.82      0.00
                               -0.00      0.00  -2619.82

     ewald   stress (kbar)-105879.93     -0.00     -0.00
                               -0.00-105879.93      0.00
                               -0.00      0.00-105879.93

     hubbard stress (kbar)      0.00      0.00      0.00
                                0.00      0.00      0.00
                                0.00      0.00      0.00

     DFT-D   stress (kbar)      0.00      0.00      0.00
                                0.00      0.00      0.00
                                0.00      0.00      0.00

     XDM     stress (kbar)      0.00      0.00      0.00
                                0.00      0.00      0.00
                                0.00      0.00      0.00

     dft-nl  stress (kbar)      0.00      0.00      0.00
                                0.00      0.00      0.00
                                0.00      0.00      0.00

     TS-vdW  stress (kbar)      0.00      0.00      0.00
                                0.00      0.00      0.00
                                0.00      0.00      0.00

     MDB     stress (kbar)      0.00      0.00      0.00
                                0.00      0.00      0.00
                                0.00      0.00      0.00

     3D-RISM stress (kbar)      0.00      0.00      0.00
                                0.00      0.00      0.00
                                0.00      0.00      0.00

     Message from routine punch:
     Nothing written, as per user request (disk_io='none')

     init_run     :      2.28s CPU      2.45s WALL (       1 calls)
     electrons    :     70.71s CPU     75.89s WALL (       1 calls)
     forces       :      0.36s CPU      0.37s WALL (       1 calls)
     stress       :      2.81s CPU      2.85s WALL (       1 calls)

     Called by init_run:
     wfcinit      :      1.39s CPU      1.50s WALL (       1 calls)
     wfcinit:atom :      0.02s CPU      0.03s WALL (     572 calls)
     wfcinit:wfcr :      1.21s CPU      1.31s WALL (     572 calls)
     potinit      :      0.35s CPU      0.37s WALL (       1 calls)
     hinit0       :      0.42s CPU      0.42s WALL (       1 calls)

     Called by electrons:
     c_bands      :     57.13s CPU     61.27s WALL (      17 calls)
     sum_band     :     10.85s CPU     11.77s WALL (      17 calls)
     v_of_rho     :      0.57s CPU      0.60s WALL (      18 calls)
     v_h          :      0.01s CPU      0.01s WALL (      18 calls)
     v_xc         :      0.62s CPU      0.65s WALL (      20 calls)
     newd         :      0.61s CPU      0.63s WALL (      18 calls)
     PAW_pot      :      1.61s CPU      1.69s WALL (      18 calls)
     mix_rho      :      0.03s CPU      0.04s WALL (      17 calls)

     Called by c_bands:
     init_us_2    :      1.19s CPU      1.29s WALL (   21164 calls)
     cegterg      :     54.57s CPU     58.52s WALL (    9724 calls)

     Called by sum_band:
     sum_band:wei :      0.14s CPU      0.15s WALL (      17 calls)
     sum_band:loo :      9.53s CPU     10.40s WALL (      17 calls)
     sum_band:buf :      0.22s CPU      0.25s WALL (    9724 calls)
     sum_band:ini :      0.53s CPU      0.57s WALL (    9724 calls)
     sum_band:cal :      0.46s CPU      0.50s WALL (    9724 calls)
     sum_band:bec :      0.06s CPU      0.07s WALL (    9724 calls)
     addusdens    :      1.14s CPU      1.17s WALL (      17 calls)
                                        0.00s GPU  (      17 calls)
     addusd:skk   :      0.00s CPU      0.00s WALL (      17 calls)
                                        0.00s GPU  (      17 calls)

     Called by *egterg:
     cdiaghg      :      7.89s CPU      8.35s WALL (   30516 calls)
     cegterg:over :      1.52s CPU      1.63s WALL (   20792 calls)
     cegterg:upda :      0.67s CPU      0.72s WALL (   20792 calls)
     cegterg:last :      1.25s CPU      1.30s WALL (   16239 calls)
     h_psi        :     41.84s CPU     45.03s WALL (   31088 calls)
     s_psi        :      0.93s CPU      1.00s WALL (   31088 calls)
     g_psi        :      0.19s CPU      0.20s WALL (   20792 calls)

     Called by h_psi:
     h_psi:calbec :      1.38s CPU      1.49s WALL (   31088 calls)
     vloc_psi     :     39.23s CPU     42.22s WALL (   31088 calls)
     add_vuspsi   :      0.95s CPU      1.04s WALL (   31088 calls)

     General routines
     calbec       :      1.95s CPU      2.11s WALL (   43672 calls)
     fft          :      0.46s CPU      0.48s WALL (     488 calls)
     ffts         :      0.22s CPU      0.22s WALL (      70 calls)
     fftw         :     36.72s CPU     39.50s WALL ( 1106152 calls)
     interpolate  :      0.23s CPU      0.23s WALL (      36 calls)

     Parallel routines

     PAW routines
     PAW_pot      :      1.61s CPU      1.69s WALL (      18 calls)
     PAW_symme    :      0.02s CPU      0.02s WALL (      35 calls)

     PWSCF        :     76.25s CPU     81.73s WALL


   This run was terminated on:  11:18:41  24May2025            

=------------------------------------------------------------------------------=
   JOB DONE.
=------------------------------------------------------------------------------=
