
     Program PWSCF v.7.3.1 starts on 13May2025 at 14: 6:19 

     This program is part of the open-source Quantum ESPRESSO suite
     for quantum simulation of materials; please cite
         "P. Giannozzi et al., J. Phys.:Condens. Matter 21 395502 (2009);
         "P. Giannozzi et al., J. Phys.:Condens. Matter 29 465901 (2017);
         "P. Giannozzi et al., J. Chem. Phys. 152 154105 (2020);
          URL http://www.quantum-espresso.org", 
     in publications or presentations arising from this work. More details at
     http://www.quantum-espresso.org/quote

     Parallel version (MPI & OpenMP), running on      16 processor cores
     Number of MPI processes:                 4
     Threads/MPI process:                     4

     MPI processes distributed on     1 nodes
     74046 MiB available memory on the printing compute node when the environment starts

     Waiting for input...
     Reading input from standard input

     Current dimensions of program PWSCF are:
     Max number of different atomic species (ntypx) = 10
     Max number of k-points (npk) =  40000
     Max angular momentum in pseudopotentials (lmaxx) =  4
     file Fe.pbe-spn-kjpaw_psl.1.0.0.UPF: wavefunction(s)  3P 3D renormalized
     Found identity + ( -0.5000 -0.5000 -0.5000) symmetry
     This is a supercell, fractional translations are disabled
     Message from routine setup:
     using ibrav=0 with symmetry is DISCOURAGED, use correct ibrav instead

     R & G space division:  proc/nbgrp/npool/nimage =       4
     Subspace diagonalization in iterative solution of the eigenvalue problem:
     a serial algorithm will be used


     Parallelization info
     --------------------
     sticks:   dense  smooth     PW     G-vecs:    dense   smooth      PW
     Min         633     211     63                23857     4581     767
     Max         635     212     64                23859     4582     769
     Sum        2537     845    253                95433    18325    3071

     Using Slab Decomposition



     bravais-lattice index     =            0
     lattice parameter (alat)  =       5.4199  a.u.
     unit-cell volume          =     159.2133 (a.u.)^3
     number of atoms/cell      =            2
     number of atomic types    =            1
     number of electrons       =        32.00
     number of Kohn-Sham states=           20
     kinetic-energy cutoff     =      90.0000  Ry
     charge density cutoff     =    1080.0000  Ry
     scf convergence threshold =      1.0E-08
     mixing beta               =       0.2000
     number of iterations used =            8  plain     mixing
     Exchange-correlation= SLA  PW   PBX  PBC
                           (   1   4   3   4   0   0   0)

     celldm(1)=   5.419923  celldm(2)=   0.000000  celldm(3)=   0.000000
     celldm(4)=   0.000000  celldm(5)=   0.000000  celldm(6)=   0.000000

     crystal axes: (cart. coord. in units of alat)
               a(1) = (   1.000000   0.000000   0.000000 )  
               a(2) = (   0.000000   1.000000   0.000000 )  
               a(3) = (   0.000000   0.000000   1.000000 )  

     reciprocal axes: (cart. coord. in units 2 pi/alat)
               b(1) = (  1.000000  0.000000  0.000000 )  
               b(2) = (  0.000000  1.000000  0.000000 )  
               b(3) = (  0.000000  0.000000  1.000000 )  


     PseudoPot. # 1 for Fe read from file:
     ./pseudo/Fe.pbe-spn-kjpaw_psl.1.0.0.UPF
     MD5 check sum: fc81f059e5c5069939230b1155715ae8
     Pseudo is Projector augmented-wave + core cor, Zval = 16.0
     Generated using &quot;atomic&quot; code by A. Dal Corso  v.6.3
     Shape of augmentation charge: PSQ
     Using radial grid of 1191 points,  6 beta functions with: 
                l(1) =   0
                l(2) =   0
                l(3) =   1
                l(4) =   1
                l(5) =   2
                l(6) =   2
     Q(r) pseudized with 0 coefficients 


     atomic species   valence    mass     pseudopotential
     Fe               16.00    55.84500     Fe( 1.00)

     Starting magnetic structure 
     atomic species   magnetization
     Fe              0.400

     48 Sym. Ops., with inversion, found


                                    s                        frac. trans.

      isym =  1     identity                                     

 cryst.   s( 1) = (     1          0          0      )
                  (     0          1          0      )
                  (     0          0          1      )

 cart.    s( 1) = (  1.0000000  0.0000000  0.0000000 )
                  (  0.0000000  1.0000000  0.0000000 )
                  (  0.0000000  0.0000000  1.0000000 )


      isym =  2     180 deg rotation - cart. axis [0,0,1]        

 cryst.   s( 2) = (    -1          0          0      )
                  (     0         -1          0      )
                  (     0          0          1      )

 cart.    s( 2) = ( -1.0000000  0.0000000  0.0000000 )
                  (  0.0000000 -1.0000000  0.0000000 )
                  (  0.0000000  0.0000000  1.0000000 )


      isym =  3     180 deg rotation - cart. axis [0,1,0]        

 cryst.   s( 3) = (    -1          0          0      )
                  (     0          1          0      )
                  (     0          0         -1      )

 cart.    s( 3) = ( -1.0000000  0.0000000  0.0000000 )
                  (  0.0000000  1.0000000  0.0000000 )
                  (  0.0000000  0.0000000 -1.0000000 )


      isym =  4     180 deg rotation - cart. axis [1,0,0]        

 cryst.   s( 4) = (     1          0          0      )
                  (     0         -1          0      )
                  (     0          0         -1      )

 cart.    s( 4) = (  1.0000000  0.0000000  0.0000000 )
                  (  0.0000000 -1.0000000  0.0000000 )
                  (  0.0000000  0.0000000 -1.0000000 )


      isym =  5     180 deg rotation - cart. axis [1,1,0]        

 cryst.   s( 5) = (     0          1          0      )
                  (     1          0          0      )
                  (     0          0         -1      )

 cart.    s( 5) = (  0.0000000  1.0000000  0.0000000 )
                  (  1.0000000  0.0000000  0.0000000 )
                  (  0.0000000  0.0000000 -1.0000000 )


      isym =  6     180 deg rotation - cart. axis [1,-1,0]       

 cryst.   s( 6) = (     0         -1          0      )
                  (    -1          0          0      )
                  (     0          0         -1      )

 cart.    s( 6) = (  0.0000000 -1.0000000  0.0000000 )
                  ( -1.0000000  0.0000000  0.0000000 )
                  (  0.0000000  0.0000000 -1.0000000 )


      isym =  7      90 deg rotation - cart. axis [0,0,-1]       

 cryst.   s( 7) = (     0         -1          0      )
                  (     1          0          0      )
                  (     0          0          1      )

 cart.    s( 7) = (  0.0000000  1.0000000  0.0000000 )
                  ( -1.0000000  0.0000000  0.0000000 )
                  (  0.0000000  0.0000000  1.0000000 )


      isym =  8      90 deg rotation - cart. axis [0,0,1]        

 cryst.   s( 8) = (     0          1          0      )
                  (    -1          0          0      )
                  (     0          0          1      )

 cart.    s( 8) = (  0.0000000 -1.0000000  0.0000000 )
                  (  1.0000000  0.0000000  0.0000000 )
                  (  0.0000000  0.0000000  1.0000000 )


      isym =  9     180 deg rotation - cart. axis [1,0,1]        

 cryst.   s( 9) = (     0          0          1      )
                  (     0         -1          0      )
                  (     1          0          0      )

 cart.    s( 9) = (  0.0000000  0.0000000  1.0000000 )
                  (  0.0000000 -1.0000000  0.0000000 )
                  (  1.0000000  0.0000000  0.0000000 )


      isym = 10     180 deg rotation - cart. axis [-1,0,1]       

 cryst.   s(10) = (     0          0         -1      )
                  (     0         -1          0      )
                  (    -1          0          0      )

 cart.    s(10) = (  0.0000000  0.0000000 -1.0000000 )
                  (  0.0000000 -1.0000000  0.0000000 )
                  ( -1.0000000  0.0000000  0.0000000 )


      isym = 11      90 deg rotation - cart. axis [0,1,0]        

 cryst.   s(11) = (     0          0         -1      )
                  (     0          1          0      )
                  (     1          0          0      )

 cart.    s(11) = (  0.0000000  0.0000000  1.0000000 )
                  (  0.0000000  1.0000000  0.0000000 )
                  ( -1.0000000  0.0000000  0.0000000 )


      isym = 12      90 deg rotation - cart. axis [0,-1,0]       

 cryst.   s(12) = (     0          0          1      )
                  (     0          1          0      )
                  (    -1          0          0      )

 cart.    s(12) = (  0.0000000  0.0000000 -1.0000000 )
                  (  0.0000000  1.0000000  0.0000000 )
                  (  1.0000000  0.0000000  0.0000000 )


      isym = 13     180 deg rotation - cart. axis [0,1,1]        

 cryst.   s(13) = (    -1          0          0      )
                  (     0          0          1      )
                  (     0          1          0      )

 cart.    s(13) = ( -1.0000000  0.0000000  0.0000000 )
                  (  0.0000000  0.0000000  1.0000000 )
                  (  0.0000000  1.0000000  0.0000000 )


      isym = 14     180 deg rotation - cart. axis [0,1,-1]       

 cryst.   s(14) = (    -1          0          0      )
                  (     0          0         -1      )
                  (     0         -1          0      )

 cart.    s(14) = ( -1.0000000  0.0000000  0.0000000 )
                  (  0.0000000  0.0000000 -1.0000000 )
                  (  0.0000000 -1.0000000  0.0000000 )


      isym = 15      90 deg rotation - cart. axis [-1,0,0]       

 cryst.   s(15) = (     1          0          0      )
                  (     0          0         -1      )
                  (     0          1          0      )

 cart.    s(15) = (  1.0000000  0.0000000  0.0000000 )
                  (  0.0000000  0.0000000  1.0000000 )
                  (  0.0000000 -1.0000000  0.0000000 )


      isym = 16      90 deg rotation - cart. axis [1,0,0]        

 cryst.   s(16) = (     1          0          0      )
                  (     0          0          1      )
                  (     0         -1          0      )

 cart.    s(16) = (  1.0000000  0.0000000  0.0000000 )
                  (  0.0000000  0.0000000 -1.0000000 )
                  (  0.0000000  1.0000000  0.0000000 )


      isym = 17     120 deg rotation - cart. axis [-1,-1,-1]     

 cryst.   s(17) = (     0          0          1      )
                  (     1          0          0      )
                  (     0          1          0      )

 cart.    s(17) = (  0.0000000  1.0000000  0.0000000 )
                  (  0.0000000  0.0000000  1.0000000 )
                  (  1.0000000  0.0000000  0.0000000 )


      isym = 18     120 deg rotation - cart. axis [-1,1,1]       

 cryst.   s(18) = (     0          0         -1      )
                  (    -1          0          0      )
                  (     0          1          0      )

 cart.    s(18) = (  0.0000000 -1.0000000  0.0000000 )
                  (  0.0000000  0.0000000  1.0000000 )
                  ( -1.0000000  0.0000000  0.0000000 )


      isym = 19     120 deg rotation - cart. axis [1,1,-1]       

 cryst.   s(19) = (     0          0         -1      )
                  (     1          0          0      )
                  (     0         -1          0      )

 cart.    s(19) = (  0.0000000  1.0000000  0.0000000 )
                  (  0.0000000  0.0000000 -1.0000000 )
                  ( -1.0000000  0.0000000  0.0000000 )


      isym = 20     120 deg rotation - cart. axis [1,-1,1]       

 cryst.   s(20) = (     0          0          1      )
                  (    -1          0          0      )
                  (     0         -1          0      )

 cart.    s(20) = (  0.0000000 -1.0000000  0.0000000 )
                  (  0.0000000  0.0000000 -1.0000000 )
                  (  1.0000000  0.0000000  0.0000000 )


      isym = 21     120 deg rotation - cart. axis [1,1,1]        

 cryst.   s(21) = (     0          1          0      )
                  (     0          0          1      )
                  (     1          0          0      )

 cart.    s(21) = (  0.0000000  0.0000000  1.0000000 )
                  (  1.0000000  0.0000000  0.0000000 )
                  (  0.0000000  1.0000000  0.0000000 )


      isym = 22     120 deg rotation - cart. axis [-1,1,-1]      

 cryst.   s(22) = (     0         -1          0      )
                  (     0          0         -1      )
                  (     1          0          0      )

 cart.    s(22) = (  0.0000000  0.0000000  1.0000000 )
                  ( -1.0000000  0.0000000  0.0000000 )
                  (  0.0000000 -1.0000000  0.0000000 )


      isym = 23     120 deg rotation - cart. axis [1,-1,-1]      

 cryst.   s(23) = (     0         -1          0      )
                  (     0          0          1      )
                  (    -1          0          0      )

 cart.    s(23) = (  0.0000000  0.0000000 -1.0000000 )
                  ( -1.0000000  0.0000000  0.0000000 )
                  (  0.0000000  1.0000000  0.0000000 )


      isym = 24     120 deg rotation - cart. axis [-1,-1,1]      

 cryst.   s(24) = (     0          1          0      )
                  (     0          0         -1      )
                  (    -1          0          0      )

 cart.    s(24) = (  0.0000000  0.0000000 -1.0000000 )
                  (  1.0000000  0.0000000  0.0000000 )
                  (  0.0000000 -1.0000000  0.0000000 )


      isym = 25     inversion                                    

 cryst.   s(25) = (    -1          0          0      )
                  (     0         -1          0      )
                  (     0          0         -1      )

 cart.    s(25) = ( -1.0000000  0.0000000  0.0000000 )
                  (  0.0000000 -1.0000000  0.0000000 )
                  (  0.0000000  0.0000000 -1.0000000 )


      isym = 26     inv. 180 deg rotation - cart. axis [0,0,1]   

 cryst.   s(26) = (     1          0          0      )
                  (     0          1          0      )
                  (     0          0         -1      )

 cart.    s(26) = (  1.0000000  0.0000000  0.0000000 )
                  (  0.0000000  1.0000000  0.0000000 )
                  (  0.0000000  0.0000000 -1.0000000 )


      isym = 27     inv. 180 deg rotation - cart. axis [0,1,0]   

 cryst.   s(27) = (     1          0          0      )
                  (     0         -1          0      )
                  (     0          0          1      )

 cart.    s(27) = (  1.0000000  0.0000000  0.0000000 )
                  (  0.0000000 -1.0000000  0.0000000 )
                  (  0.0000000  0.0000000  1.0000000 )


      isym = 28     inv. 180 deg rotation - cart. axis [1,0,0]   

 cryst.   s(28) = (    -1          0          0      )
                  (     0          1          0      )
                  (     0          0          1      )

 cart.    s(28) = ( -1.0000000  0.0000000  0.0000000 )
                  (  0.0000000  1.0000000  0.0000000 )
                  (  0.0000000  0.0000000  1.0000000 )


      isym = 29     inv. 180 deg rotation - cart. axis [1,1,0]   

 cryst.   s(29) = (     0         -1          0      )
                  (    -1          0          0      )
                  (     0          0          1      )

 cart.    s(29) = (  0.0000000 -1.0000000  0.0000000 )
                  ( -1.0000000  0.0000000  0.0000000 )
                  (  0.0000000  0.0000000  1.0000000 )


      isym = 30     inv. 180 deg rotation - cart. axis [1,-1,0]  

 cryst.   s(30) = (     0          1          0      )
                  (     1          0          0      )
                  (     0          0          1      )

 cart.    s(30) = (  0.0000000  1.0000000  0.0000000 )
                  (  1.0000000  0.0000000  0.0000000 )
                  (  0.0000000  0.0000000  1.0000000 )


      isym = 31     inv.  90 deg rotation - cart. axis [0,0,-1]  

 cryst.   s(31) = (     0          1          0      )
                  (    -1          0          0      )
                  (     0          0         -1      )

 cart.    s(31) = (  0.0000000 -1.0000000  0.0000000 )
                  (  1.0000000  0.0000000  0.0000000 )
                  (  0.0000000  0.0000000 -1.0000000 )


      isym = 32     inv.  90 deg rotation - cart. axis [0,0,1]   

 cryst.   s(32) = (     0         -1          0      )
                  (     1          0          0      )
                  (     0          0         -1      )

 cart.    s(32) = (  0.0000000  1.0000000  0.0000000 )
                  ( -1.0000000  0.0000000  0.0000000 )
                  (  0.0000000  0.0000000 -1.0000000 )


      isym = 33     inv. 180 deg rotation - cart. axis [1,0,1]   

 cryst.   s(33) = (     0          0         -1      )
                  (     0          1          0      )
                  (    -1          0          0      )

 cart.    s(33) = (  0.0000000  0.0000000 -1.0000000 )
                  (  0.0000000  1.0000000  0.0000000 )
                  ( -1.0000000  0.0000000  0.0000000 )


      isym = 34     inv. 180 deg rotation - cart. axis [-1,0,1]  

 cryst.   s(34) = (     0          0          1      )
                  (     0          1          0      )
                  (     1          0          0      )

 cart.    s(34) = (  0.0000000  0.0000000  1.0000000 )
                  (  0.0000000  1.0000000  0.0000000 )
                  (  1.0000000  0.0000000  0.0000000 )


      isym = 35     inv.  90 deg rotation - cart. axis [0,1,0]   

 cryst.   s(35) = (     0          0          1      )
                  (     0         -1          0      )
                  (    -1          0          0      )

 cart.    s(35) = (  0.0000000  0.0000000 -1.0000000 )
                  (  0.0000000 -1.0000000  0.0000000 )
                  (  1.0000000  0.0000000  0.0000000 )


      isym = 36     inv.  90 deg rotation - cart. axis [0,-1,0]  

 cryst.   s(36) = (     0          0         -1      )
                  (     0         -1          0      )
                  (     1          0          0      )

 cart.    s(36) = (  0.0000000  0.0000000  1.0000000 )
                  (  0.0000000 -1.0000000  0.0000000 )
                  ( -1.0000000  0.0000000  0.0000000 )


      isym = 37     inv. 180 deg rotation - cart. axis [0,1,1]   

 cryst.   s(37) = (     1          0          0      )
                  (     0          0         -1      )
                  (     0         -1          0      )

 cart.    s(37) = (  1.0000000  0.0000000  0.0000000 )
                  (  0.0000000  0.0000000 -1.0000000 )
                  (  0.0000000 -1.0000000  0.0000000 )


      isym = 38     inv. 180 deg rotation - cart. axis [0,1,-1]  

 cryst.   s(38) = (     1          0          0      )
                  (     0          0          1      )
                  (     0          1          0      )

 cart.    s(38) = (  1.0000000  0.0000000  0.0000000 )
                  (  0.0000000  0.0000000  1.0000000 )
                  (  0.0000000  1.0000000  0.0000000 )


      isym = 39     inv.  90 deg rotation - cart. axis [-1,0,0]  

 cryst.   s(39) = (    -1          0          0      )
                  (     0          0          1      )
                  (     0         -1          0      )

 cart.    s(39) = ( -1.0000000  0.0000000  0.0000000 )
                  (  0.0000000  0.0000000 -1.0000000 )
                  (  0.0000000  1.0000000  0.0000000 )


      isym = 40     inv.  90 deg rotation - cart. axis [1,0,0]   

 cryst.   s(40) = (    -1          0          0      )
                  (     0          0         -1      )
                  (     0          1          0      )

 cart.    s(40) = ( -1.0000000  0.0000000  0.0000000 )
                  (  0.0000000  0.0000000  1.0000000 )
                  (  0.0000000 -1.0000000  0.0000000 )


      isym = 41     inv. 120 deg rotation - cart. axis [-1,-1,-1]

 cryst.   s(41) = (     0          0         -1      )
                  (    -1          0          0      )
                  (     0         -1          0      )

 cart.    s(41) = (  0.0000000 -1.0000000  0.0000000 )
                  (  0.0000000  0.0000000 -1.0000000 )
                  ( -1.0000000  0.0000000  0.0000000 )


      isym = 42     inv. 120 deg rotation - cart. axis [-1,1,1]  

 cryst.   s(42) = (     0          0          1      )
                  (     1          0          0      )
                  (     0         -1          0      )

 cart.    s(42) = (  0.0000000  1.0000000  0.0000000 )
                  (  0.0000000  0.0000000 -1.0000000 )
                  (  1.0000000  0.0000000  0.0000000 )


      isym = 43     inv. 120 deg rotation - cart. axis [1,1,-1]  

 cryst.   s(43) = (     0          0          1      )
                  (    -1          0          0      )
                  (     0          1          0      )

 cart.    s(43) = (  0.0000000 -1.0000000  0.0000000 )
                  (  0.0000000  0.0000000  1.0000000 )
                  (  1.0000000  0.0000000  0.0000000 )


      isym = 44     inv. 120 deg rotation - cart. axis [1,-1,1]  

 cryst.   s(44) = (     0          0         -1      )
                  (     1          0          0      )
                  (     0          1          0      )

 cart.    s(44) = (  0.0000000  1.0000000  0.0000000 )
                  (  0.0000000  0.0000000  1.0000000 )
                  ( -1.0000000  0.0000000  0.0000000 )


      isym = 45     inv. 120 deg rotation - cart. axis [1,1,1]   

 cryst.   s(45) = (     0         -1          0      )
                  (     0          0         -1      )
                  (    -1          0          0      )

 cart.    s(45) = (  0.0000000  0.0000000 -1.0000000 )
                  ( -1.0000000  0.0000000  0.0000000 )
                  (  0.0000000 -1.0000000  0.0000000 )


      isym = 46     inv. 120 deg rotation - cart. axis [-1,1,-1] 

 cryst.   s(46) = (     0          1          0      )
                  (     0          0          1      )
                  (    -1          0          0      )

 cart.    s(46) = (  0.0000000  0.0000000 -1.0000000 )
                  (  1.0000000  0.0000000  0.0000000 )
                  (  0.0000000  1.0000000  0.0000000 )


      isym = 47     inv. 120 deg rotation - cart. axis [1,-1,-1] 

 cryst.   s(47) = (     0          1          0      )
                  (     0          0         -1      )
                  (     1          0          0      )

 cart.    s(47) = (  0.0000000  0.0000000  1.0000000 )
                  (  1.0000000  0.0000000  0.0000000 )
                  (  0.0000000 -1.0000000  0.0000000 )


      isym = 48     inv. 120 deg rotation - cart. axis [-1,-1,1] 

 cryst.   s(48) = (     0         -1          0      )
                  (     0          0          1      )
                  (     1          0          0      )

 cart.    s(48) = (  0.0000000  0.0000000  1.0000000 )
                  ( -1.0000000  0.0000000  0.0000000 )
                  (  0.0000000  1.0000000  0.0000000 )


   Cartesian axes

     site n.     atom                  positions (alat units)
         1        Fe     tau(   1) = (   0.0000000   0.0000000   0.0000000  )
         2        Fe     tau(   2) = (   0.5000000   0.5000000   0.5000000  )

   Crystallographic axes

     site n.     atom                  positions (cryst. coord.)
         1        Fe     tau(   1) = (  0.0000000  0.0000000  0.0000000  )
         2        Fe     tau(   2) = (  0.5000000  0.5000000  0.5000000  )

     number of k points=   455  Marzari-Vanderbilt smearing, width (Ry)=  0.0100
                       cart. coord. in units 2pi/alat
        k(    1) = (   0.0000000   0.0000000   0.0000000), wk =   0.0000723
        k(    2) = (   0.0000000   0.0000000   0.0416667), wk =   0.0004340
        k(    3) = (   0.0000000   0.0000000   0.0833333), wk =   0.0004340
        k(    4) = (   0.0000000   0.0000000   0.1250000), wk =   0.0004340
        k(    5) = (   0.0000000   0.0000000   0.1666667), wk =   0.0004340
        k(    6) = (   0.0000000   0.0000000   0.2083333), wk =   0.0004340
        k(    7) = (   0.0000000   0.0000000   0.2500000), wk =   0.0004340
        k(    8) = (   0.0000000   0.0000000   0.2916667), wk =   0.0004340
        k(    9) = (   0.0000000   0.0000000   0.3333333), wk =   0.0004340
        k(   10) = (   0.0000000   0.0000000   0.3750000), wk =   0.0004340
        k(   11) = (   0.0000000   0.0000000   0.4166667), wk =   0.0004340
        k(   12) = (   0.0000000   0.0000000   0.4583333), wk =   0.0004340
        k(   13) = (   0.0000000   0.0000000  -0.5000000), wk =   0.0002170
        k(   14) = (   0.0000000   0.0416667   0.0416667), wk =   0.0008681
        k(   15) = (   0.0000000   0.0416667   0.0833333), wk =   0.0017361
        k(   16) = (   0.0000000   0.0416667   0.1250000), wk =   0.0017361
        k(   17) = (   0.0000000   0.0416667   0.1666667), wk =   0.0017361
        k(   18) = (   0.0000000   0.0416667   0.2083333), wk =   0.0017361
        k(   19) = (   0.0000000   0.0416667   0.2500000), wk =   0.0017361
        k(   20) = (   0.0000000   0.0416667   0.2916667), wk =   0.0017361
        k(   21) = (   0.0000000   0.0416667   0.3333333), wk =   0.0017361
        k(   22) = (   0.0000000   0.0416667   0.3750000), wk =   0.0017361
        k(   23) = (   0.0000000   0.0416667   0.4166667), wk =   0.0017361
        k(   24) = (   0.0000000   0.0416667   0.4583333), wk =   0.0017361
        k(   25) = (   0.0000000   0.0416667  -0.5000000), wk =   0.0008681
        k(   26) = (   0.0000000   0.0833333   0.0833333), wk =   0.0008681
        k(   27) = (   0.0000000   0.0833333   0.1250000), wk =   0.0017361
        k(   28) = (   0.0000000   0.0833333   0.1666667), wk =   0.0017361
        k(   29) = (   0.0000000   0.0833333   0.2083333), wk =   0.0017361
        k(   30) = (   0.0000000   0.0833333   0.2500000), wk =   0.0017361
        k(   31) = (   0.0000000   0.0833333   0.2916667), wk =   0.0017361
        k(   32) = (   0.0000000   0.0833333   0.3333333), wk =   0.0017361
        k(   33) = (   0.0000000   0.0833333   0.3750000), wk =   0.0017361
        k(   34) = (   0.0000000   0.0833333   0.4166667), wk =   0.0017361
        k(   35) = (   0.0000000   0.0833333   0.4583333), wk =   0.0017361
        k(   36) = (   0.0000000   0.0833333  -0.5000000), wk =   0.0008681
        k(   37) = (   0.0000000   0.1250000   0.1250000), wk =   0.0008681
        k(   38) = (   0.0000000   0.1250000   0.1666667), wk =   0.0017361
        k(   39) = (   0.0000000   0.1250000   0.2083333), wk =   0.0017361
        k(   40) = (   0.0000000   0.1250000   0.2500000), wk =   0.0017361
        k(   41) = (   0.0000000   0.1250000   0.2916667), wk =   0.0017361
        k(   42) = (   0.0000000   0.1250000   0.3333333), wk =   0.0017361
        k(   43) = (   0.0000000   0.1250000   0.3750000), wk =   0.0017361
        k(   44) = (   0.0000000   0.1250000   0.4166667), wk =   0.0017361
        k(   45) = (   0.0000000   0.1250000   0.4583333), wk =   0.0017361
        k(   46) = (   0.0000000   0.1250000  -0.5000000), wk =   0.0008681
        k(   47) = (   0.0000000   0.1666667   0.1666667), wk =   0.0008681
        k(   48) = (   0.0000000   0.1666667   0.2083333), wk =   0.0017361
        k(   49) = (   0.0000000   0.1666667   0.2500000), wk =   0.0017361
        k(   50) = (   0.0000000   0.1666667   0.2916667), wk =   0.0017361
        k(   51) = (   0.0000000   0.1666667   0.3333333), wk =   0.0017361
        k(   52) = (   0.0000000   0.1666667   0.3750000), wk =   0.0017361
        k(   53) = (   0.0000000   0.1666667   0.4166667), wk =   0.0017361
        k(   54) = (   0.0000000   0.1666667   0.4583333), wk =   0.0017361
        k(   55) = (   0.0000000   0.1666667  -0.5000000), wk =   0.0008681
        k(   56) = (   0.0000000   0.2083333   0.2083333), wk =   0.0008681
        k(   57) = (   0.0000000   0.2083333   0.2500000), wk =   0.0017361
        k(   58) = (   0.0000000   0.2083333   0.2916667), wk =   0.0017361
        k(   59) = (   0.0000000   0.2083333   0.3333333), wk =   0.0017361
        k(   60) = (   0.0000000   0.2083333   0.3750000), wk =   0.0017361
        k(   61) = (   0.0000000   0.2083333   0.4166667), wk =   0.0017361
        k(   62) = (   0.0000000   0.2083333   0.4583333), wk =   0.0017361
        k(   63) = (   0.0000000   0.2083333  -0.5000000), wk =   0.0008681
        k(   64) = (   0.0000000   0.2500000   0.2500000), wk =   0.0008681
        k(   65) = (   0.0000000   0.2500000   0.2916667), wk =   0.0017361
        k(   66) = (   0.0000000   0.2500000   0.3333333), wk =   0.0017361
        k(   67) = (   0.0000000   0.2500000   0.3750000), wk =   0.0017361
        k(   68) = (   0.0000000   0.2500000   0.4166667), wk =   0.0017361
        k(   69) = (   0.0000000   0.2500000   0.4583333), wk =   0.0017361
        k(   70) = (   0.0000000   0.2500000  -0.5000000), wk =   0.0008681
        k(   71) = (   0.0000000   0.2916667   0.2916667), wk =   0.0008681
        k(   72) = (   0.0000000   0.2916667   0.3333333), wk =   0.0017361
        k(   73) = (   0.0000000   0.2916667   0.3750000), wk =   0.0017361
        k(   74) = (   0.0000000   0.2916667   0.4166667), wk =   0.0017361
        k(   75) = (   0.0000000   0.2916667   0.4583333), wk =   0.0017361
        k(   76) = (   0.0000000   0.2916667  -0.5000000), wk =   0.0008681
        k(   77) = (   0.0000000   0.3333333   0.3333333), wk =   0.0008681
        k(   78) = (   0.0000000   0.3333333   0.3750000), wk =   0.0017361
        k(   79) = (   0.0000000   0.3333333   0.4166667), wk =   0.0017361
        k(   80) = (   0.0000000   0.3333333   0.4583333), wk =   0.0017361
        k(   81) = (   0.0000000   0.3333333  -0.5000000), wk =   0.0008681
        k(   82) = (   0.0000000   0.3750000   0.3750000), wk =   0.0008681
        k(   83) = (   0.0000000   0.3750000   0.4166667), wk =   0.0017361
        k(   84) = (   0.0000000   0.3750000   0.4583333), wk =   0.0017361
        k(   85) = (   0.0000000   0.3750000  -0.5000000), wk =   0.0008681
        k(   86) = (   0.0000000   0.4166667   0.4166667), wk =   0.0008681
        k(   87) = (   0.0000000   0.4166667   0.4583333), wk =   0.0017361
        k(   88) = (   0.0000000   0.4166667  -0.5000000), wk =   0.0008681
        k(   89) = (   0.0000000   0.4583333   0.4583333), wk =   0.0008681
        k(   90) = (   0.0000000   0.4583333  -0.5000000), wk =   0.0008681
        k(   91) = (   0.0000000  -0.5000000  -0.5000000), wk =   0.0002170
        k(   92) = (   0.0416667   0.0416667   0.0416667), wk =   0.0005787
        k(   93) = (   0.0416667   0.0416667   0.0833333), wk =   0.0017361
        k(   94) = (   0.0416667   0.0416667   0.1250000), wk =   0.0017361
        k(   95) = (   0.0416667   0.0416667   0.1666667), wk =   0.0017361
        k(   96) = (   0.0416667   0.0416667   0.2083333), wk =   0.0017361
        k(   97) = (   0.0416667   0.0416667   0.2500000), wk =   0.0017361
        k(   98) = (   0.0416667   0.0416667   0.2916667), wk =   0.0017361
        k(   99) = (   0.0416667   0.0416667   0.3333333), wk =   0.0017361
        k(  100) = (   0.0416667   0.0416667   0.3750000), wk =   0.0017361
        k(  101) = (   0.0416667   0.0416667   0.4166667), wk =   0.0017361
        k(  102) = (   0.0416667   0.0416667   0.4583333), wk =   0.0017361
        k(  103) = (   0.0416667   0.0416667  -0.5000000), wk =   0.0008681
        k(  104) = (   0.0416667   0.0833333   0.0833333), wk =   0.0017361
        k(  105) = (   0.0416667   0.0833333   0.1250000), wk =   0.0034722
        k(  106) = (   0.0416667   0.0833333   0.1666667), wk =   0.0034722
        k(  107) = (   0.0416667   0.0833333   0.2083333), wk =   0.0034722
        k(  108) = (   0.0416667   0.0833333   0.2500000), wk =   0.0034722
        k(  109) = (   0.0416667   0.0833333   0.2916667), wk =   0.0034722
        k(  110) = (   0.0416667   0.0833333   0.3333333), wk =   0.0034722
        k(  111) = (   0.0416667   0.0833333   0.3750000), wk =   0.0034722
        k(  112) = (   0.0416667   0.0833333   0.4166667), wk =   0.0034722
        k(  113) = (   0.0416667   0.0833333   0.4583333), wk =   0.0034722
        k(  114) = (   0.0416667   0.0833333  -0.5000000), wk =   0.0017361
        k(  115) = (   0.0416667   0.1250000   0.1250000), wk =   0.0017361
        k(  116) = (   0.0416667   0.1250000   0.1666667), wk =   0.0034722
        k(  117) = (   0.0416667   0.1250000   0.2083333), wk =   0.0034722
        k(  118) = (   0.0416667   0.1250000   0.2500000), wk =   0.0034722
        k(  119) = (   0.0416667   0.1250000   0.2916667), wk =   0.0034722
        k(  120) = (   0.0416667   0.1250000   0.3333333), wk =   0.0034722
        k(  121) = (   0.0416667   0.1250000   0.3750000), wk =   0.0034722
        k(  122) = (   0.0416667   0.1250000   0.4166667), wk =   0.0034722
        k(  123) = (   0.0416667   0.1250000   0.4583333), wk =   0.0034722
        k(  124) = (   0.0416667   0.1250000  -0.5000000), wk =   0.0017361
        k(  125) = (   0.0416667   0.1666667   0.1666667), wk =   0.0017361
        k(  126) = (   0.0416667   0.1666667   0.2083333), wk =   0.0034722
        k(  127) = (   0.0416667   0.1666667   0.2500000), wk =   0.0034722
        k(  128) = (   0.0416667   0.1666667   0.2916667), wk =   0.0034722
        k(  129) = (   0.0416667   0.1666667   0.3333333), wk =   0.0034722
        k(  130) = (   0.0416667   0.1666667   0.3750000), wk =   0.0034722
        k(  131) = (   0.0416667   0.1666667   0.4166667), wk =   0.0034722
        k(  132) = (   0.0416667   0.1666667   0.4583333), wk =   0.0034722
        k(  133) = (   0.0416667   0.1666667  -0.5000000), wk =   0.0017361
        k(  134) = (   0.0416667   0.2083333   0.2083333), wk =   0.0017361
        k(  135) = (   0.0416667   0.2083333   0.2500000), wk =   0.0034722
        k(  136) = (   0.0416667   0.2083333   0.2916667), wk =   0.0034722
        k(  137) = (   0.0416667   0.2083333   0.3333333), wk =   0.0034722
        k(  138) = (   0.0416667   0.2083333   0.3750000), wk =   0.0034722
        k(  139) = (   0.0416667   0.2083333   0.4166667), wk =   0.0034722
        k(  140) = (   0.0416667   0.2083333   0.4583333), wk =   0.0034722
        k(  141) = (   0.0416667   0.2083333  -0.5000000), wk =   0.0017361
        k(  142) = (   0.0416667   0.2500000   0.2500000), wk =   0.0017361
        k(  143) = (   0.0416667   0.2500000   0.2916667), wk =   0.0034722
        k(  144) = (   0.0416667   0.2500000   0.3333333), wk =   0.0034722
        k(  145) = (   0.0416667   0.2500000   0.3750000), wk =   0.0034722
        k(  146) = (   0.0416667   0.2500000   0.4166667), wk =   0.0034722
        k(  147) = (   0.0416667   0.2500000   0.4583333), wk =   0.0034722
        k(  148) = (   0.0416667   0.2500000  -0.5000000), wk =   0.0017361
        k(  149) = (   0.0416667   0.2916667   0.2916667), wk =   0.0017361
        k(  150) = (   0.0416667   0.2916667   0.3333333), wk =   0.0034722
        k(  151) = (   0.0416667   0.2916667   0.3750000), wk =   0.0034722
        k(  152) = (   0.0416667   0.2916667   0.4166667), wk =   0.0034722
        k(  153) = (   0.0416667   0.2916667   0.4583333), wk =   0.0034722
        k(  154) = (   0.0416667   0.2916667  -0.5000000), wk =   0.0017361
        k(  155) = (   0.0416667   0.3333333   0.3333333), wk =   0.0017361
        k(  156) = (   0.0416667   0.3333333   0.3750000), wk =   0.0034722
        k(  157) = (   0.0416667   0.3333333   0.4166667), wk =   0.0034722
        k(  158) = (   0.0416667   0.3333333   0.4583333), wk =   0.0034722
        k(  159) = (   0.0416667   0.3333333  -0.5000000), wk =   0.0017361
        k(  160) = (   0.0416667   0.3750000   0.3750000), wk =   0.0017361
        k(  161) = (   0.0416667   0.3750000   0.4166667), wk =   0.0034722
        k(  162) = (   0.0416667   0.3750000   0.4583333), wk =   0.0034722
        k(  163) = (   0.0416667   0.3750000  -0.5000000), wk =   0.0017361
        k(  164) = (   0.0416667   0.4166667   0.4166667), wk =   0.0017361
        k(  165) = (   0.0416667   0.4166667   0.4583333), wk =   0.0034722
        k(  166) = (   0.0416667   0.4166667  -0.5000000), wk =   0.0017361
        k(  167) = (   0.0416667   0.4583333   0.4583333), wk =   0.0017361
        k(  168) = (   0.0416667   0.4583333  -0.5000000), wk =   0.0017361
        k(  169) = (   0.0416667  -0.5000000  -0.5000000), wk =   0.0004340
        k(  170) = (   0.0833333   0.0833333   0.0833333), wk =   0.0005787
        k(  171) = (   0.0833333   0.0833333   0.1250000), wk =   0.0017361
        k(  172) = (   0.0833333   0.0833333   0.1666667), wk =   0.0017361
        k(  173) = (   0.0833333   0.0833333   0.2083333), wk =   0.0017361
        k(  174) = (   0.0833333   0.0833333   0.2500000), wk =   0.0017361
        k(  175) = (   0.0833333   0.0833333   0.2916667), wk =   0.0017361
        k(  176) = (   0.0833333   0.0833333   0.3333333), wk =   0.0017361
        k(  177) = (   0.0833333   0.0833333   0.3750000), wk =   0.0017361
        k(  178) = (   0.0833333   0.0833333   0.4166667), wk =   0.0017361
        k(  179) = (   0.0833333   0.0833333   0.4583333), wk =   0.0017361
        k(  180) = (   0.0833333   0.0833333  -0.5000000), wk =   0.0008681
        k(  181) = (   0.0833333   0.1250000   0.1250000), wk =   0.0017361
        k(  182) = (   0.0833333   0.1250000   0.1666667), wk =   0.0034722
        k(  183) = (   0.0833333   0.1250000   0.2083333), wk =   0.0034722
        k(  184) = (   0.0833333   0.1250000   0.2500000), wk =   0.0034722
        k(  185) = (   0.0833333   0.1250000   0.2916667), wk =   0.0034722
        k(  186) = (   0.0833333   0.1250000   0.3333333), wk =   0.0034722
        k(  187) = (   0.0833333   0.1250000   0.3750000), wk =   0.0034722
        k(  188) = (   0.0833333   0.1250000   0.4166667), wk =   0.0034722
        k(  189) = (   0.0833333   0.1250000   0.4583333), wk =   0.0034722
        k(  190) = (   0.0833333   0.1250000  -0.5000000), wk =   0.0017361
        k(  191) = (   0.0833333   0.1666667   0.1666667), wk =   0.0017361
        k(  192) = (   0.0833333   0.1666667   0.2083333), wk =   0.0034722
        k(  193) = (   0.0833333   0.1666667   0.2500000), wk =   0.0034722
        k(  194) = (   0.0833333   0.1666667   0.2916667), wk =   0.0034722
        k(  195) = (   0.0833333   0.1666667   0.3333333), wk =   0.0034722
        k(  196) = (   0.0833333   0.1666667   0.3750000), wk =   0.0034722
        k(  197) = (   0.0833333   0.1666667   0.4166667), wk =   0.0034722
        k(  198) = (   0.0833333   0.1666667   0.4583333), wk =   0.0034722
        k(  199) = (   0.0833333   0.1666667  -0.5000000), wk =   0.0017361
        k(  200) = (   0.0833333   0.2083333   0.2083333), wk =   0.0017361
        k(  201) = (   0.0833333   0.2083333   0.2500000), wk =   0.0034722
        k(  202) = (   0.0833333   0.2083333   0.2916667), wk =   0.0034722
        k(  203) = (   0.0833333   0.2083333   0.3333333), wk =   0.0034722
        k(  204) = (   0.0833333   0.2083333   0.3750000), wk =   0.0034722
        k(  205) = (   0.0833333   0.2083333   0.4166667), wk =   0.0034722
        k(  206) = (   0.0833333   0.2083333   0.4583333), wk =   0.0034722
        k(  207) = (   0.0833333   0.2083333  -0.5000000), wk =   0.0017361
        k(  208) = (   0.0833333   0.2500000   0.2500000), wk =   0.0017361
        k(  209) = (   0.0833333   0.2500000   0.2916667), wk =   0.0034722
        k(  210) = (   0.0833333   0.2500000   0.3333333), wk =   0.0034722
        k(  211) = (   0.0833333   0.2500000   0.3750000), wk =   0.0034722
        k(  212) = (   0.0833333   0.2500000   0.4166667), wk =   0.0034722
        k(  213) = (   0.0833333   0.2500000   0.4583333), wk =   0.0034722
        k(  214) = (   0.0833333   0.2500000  -0.5000000), wk =   0.0017361
        k(  215) = (   0.0833333   0.2916667   0.2916667), wk =   0.0017361
        k(  216) = (   0.0833333   0.2916667   0.3333333), wk =   0.0034722
        k(  217) = (   0.0833333   0.2916667   0.3750000), wk =   0.0034722
        k(  218) = (   0.0833333   0.2916667   0.4166667), wk =   0.0034722
        k(  219) = (   0.0833333   0.2916667   0.4583333), wk =   0.0034722
        k(  220) = (   0.0833333   0.2916667  -0.5000000), wk =   0.0017361
        k(  221) = (   0.0833333   0.3333333   0.3333333), wk =   0.0017361
        k(  222) = (   0.0833333   0.3333333   0.3750000), wk =   0.0034722
        k(  223) = (   0.0833333   0.3333333   0.4166667), wk =   0.0034722
        k(  224) = (   0.0833333   0.3333333   0.4583333), wk =   0.0034722
        k(  225) = (   0.0833333   0.3333333  -0.5000000), wk =   0.0017361
        k(  226) = (   0.0833333   0.3750000   0.3750000), wk =   0.0017361
        k(  227) = (   0.0833333   0.3750000   0.4166667), wk =   0.0034722
        k(  228) = (   0.0833333   0.3750000   0.4583333), wk =   0.0034722
        k(  229) = (   0.0833333   0.3750000  -0.5000000), wk =   0.0017361
        k(  230) = (   0.0833333   0.4166667   0.4166667), wk =   0.0017361
        k(  231) = (   0.0833333   0.4166667   0.4583333), wk =   0.0034722
        k(  232) = (   0.0833333   0.4166667  -0.5000000), wk =   0.0017361
        k(  233) = (   0.0833333   0.4583333   0.4583333), wk =   0.0017361
        k(  234) = (   0.0833333   0.4583333  -0.5000000), wk =   0.0017361
        k(  235) = (   0.0833333  -0.5000000  -0.5000000), wk =   0.0004340
        k(  236) = (   0.1250000   0.1250000   0.1250000), wk =   0.0005787
        k(  237) = (   0.1250000   0.1250000   0.1666667), wk =   0.0017361
        k(  238) = (   0.1250000   0.1250000   0.2083333), wk =   0.0017361
        k(  239) = (   0.1250000   0.1250000   0.2500000), wk =   0.0017361
        k(  240) = (   0.1250000   0.1250000   0.2916667), wk =   0.0017361
        k(  241) = (   0.1250000   0.1250000   0.3333333), wk =   0.0017361
        k(  242) = (   0.1250000   0.1250000   0.3750000), wk =   0.0017361
        k(  243) = (   0.1250000   0.1250000   0.4166667), wk =   0.0017361
        k(  244) = (   0.1250000   0.1250000   0.4583333), wk =   0.0017361
        k(  245) = (   0.1250000   0.1250000  -0.5000000), wk =   0.0008681
        k(  246) = (   0.1250000   0.1666667   0.1666667), wk =   0.0017361
        k(  247) = (   0.1250000   0.1666667   0.2083333), wk =   0.0034722
        k(  248) = (   0.1250000   0.1666667   0.2500000), wk =   0.0034722
        k(  249) = (   0.1250000   0.1666667   0.2916667), wk =   0.0034722
        k(  250) = (   0.1250000   0.1666667   0.3333333), wk =   0.0034722
        k(  251) = (   0.1250000   0.1666667   0.3750000), wk =   0.0034722
        k(  252) = (   0.1250000   0.1666667   0.4166667), wk =   0.0034722
        k(  253) = (   0.1250000   0.1666667   0.4583333), wk =   0.0034722
        k(  254) = (   0.1250000   0.1666667  -0.5000000), wk =   0.0017361
        k(  255) = (   0.1250000   0.2083333   0.2083333), wk =   0.0017361
        k(  256) = (   0.1250000   0.2083333   0.2500000), wk =   0.0034722
        k(  257) = (   0.1250000   0.2083333   0.2916667), wk =   0.0034722
        k(  258) = (   0.1250000   0.2083333   0.3333333), wk =   0.0034722
        k(  259) = (   0.1250000   0.2083333   0.3750000), wk =   0.0034722
        k(  260) = (   0.1250000   0.2083333   0.4166667), wk =   0.0034722
        k(  261) = (   0.1250000   0.2083333   0.4583333), wk =   0.0034722
        k(  262) = (   0.1250000   0.2083333  -0.5000000), wk =   0.0017361
        k(  263) = (   0.1250000   0.2500000   0.2500000), wk =   0.0017361
        k(  264) = (   0.1250000   0.2500000   0.2916667), wk =   0.0034722
        k(  265) = (   0.1250000   0.2500000   0.3333333), wk =   0.0034722
        k(  266) = (   0.1250000   0.2500000   0.3750000), wk =   0.0034722
        k(  267) = (   0.1250000   0.2500000   0.4166667), wk =   0.0034722
        k(  268) = (   0.1250000   0.2500000   0.4583333), wk =   0.0034722
        k(  269) = (   0.1250000   0.2500000  -0.5000000), wk =   0.0017361
        k(  270) = (   0.1250000   0.2916667   0.2916667), wk =   0.0017361
        k(  271) = (   0.1250000   0.2916667   0.3333333), wk =   0.0034722
        k(  272) = (   0.1250000   0.2916667   0.3750000), wk =   0.0034722
        k(  273) = (   0.1250000   0.2916667   0.4166667), wk =   0.0034722
        k(  274) = (   0.1250000   0.2916667   0.4583333), wk =   0.0034722
        k(  275) = (   0.1250000   0.2916667  -0.5000000), wk =   0.0017361
        k(  276) = (   0.1250000   0.3333333   0.3333333), wk =   0.0017361
        k(  277) = (   0.1250000   0.3333333   0.3750000), wk =   0.0034722
        k(  278) = (   0.1250000   0.3333333   0.4166667), wk =   0.0034722
        k(  279) = (   0.1250000   0.3333333   0.4583333), wk =   0.0034722
        k(  280) = (   0.1250000   0.3333333  -0.5000000), wk =   0.0017361
        k(  281) = (   0.1250000   0.3750000   0.3750000), wk =   0.0017361
        k(  282) = (   0.1250000   0.3750000   0.4166667), wk =   0.0034722
        k(  283) = (   0.1250000   0.3750000   0.4583333), wk =   0.0034722
        k(  284) = (   0.1250000   0.3750000  -0.5000000), wk =   0.0017361
        k(  285) = (   0.1250000   0.4166667   0.4166667), wk =   0.0017361
        k(  286) = (   0.1250000   0.4166667   0.4583333), wk =   0.0034722
        k(  287) = (   0.1250000   0.4166667  -0.5000000), wk =   0.0017361
        k(  288) = (   0.1250000   0.4583333   0.4583333), wk =   0.0017361
        k(  289) = (   0.1250000   0.4583333  -0.5000000), wk =   0.0017361
        k(  290) = (   0.1250000  -0.5000000  -0.5000000), wk =   0.0004340
        k(  291) = (   0.1666667   0.1666667   0.1666667), wk =   0.0005787
        k(  292) = (   0.1666667   0.1666667   0.2083333), wk =   0.0017361
        k(  293) = (   0.1666667   0.1666667   0.2500000), wk =   0.0017361
        k(  294) = (   0.1666667   0.1666667   0.2916667), wk =   0.0017361
        k(  295) = (   0.1666667   0.1666667   0.3333333), wk =   0.0017361
        k(  296) = (   0.1666667   0.1666667   0.3750000), wk =   0.0017361
        k(  297) = (   0.1666667   0.1666667   0.4166667), wk =   0.0017361
        k(  298) = (   0.1666667   0.1666667   0.4583333), wk =   0.0017361
        k(  299) = (   0.1666667   0.1666667  -0.5000000), wk =   0.0008681
        k(  300) = (   0.1666667   0.2083333   0.2083333), wk =   0.0017361
        k(  301) = (   0.1666667   0.2083333   0.2500000), wk =   0.0034722
        k(  302) = (   0.1666667   0.2083333   0.2916667), wk =   0.0034722
        k(  303) = (   0.1666667   0.2083333   0.3333333), wk =   0.0034722
        k(  304) = (   0.1666667   0.2083333   0.3750000), wk =   0.0034722
        k(  305) = (   0.1666667   0.2083333   0.4166667), wk =   0.0034722
        k(  306) = (   0.1666667   0.2083333   0.4583333), wk =   0.0034722
        k(  307) = (   0.1666667   0.2083333  -0.5000000), wk =   0.0017361
        k(  308) = (   0.1666667   0.2500000   0.2500000), wk =   0.0017361
        k(  309) = (   0.1666667   0.2500000   0.2916667), wk =   0.0034722
        k(  310) = (   0.1666667   0.2500000   0.3333333), wk =   0.0034722
        k(  311) = (   0.1666667   0.2500000   0.3750000), wk =   0.0034722
        k(  312) = (   0.1666667   0.2500000   0.4166667), wk =   0.0034722
        k(  313) = (   0.1666667   0.2500000   0.4583333), wk =   0.0034722
        k(  314) = (   0.1666667   0.2500000  -0.5000000), wk =   0.0017361
        k(  315) = (   0.1666667   0.2916667   0.2916667), wk =   0.0017361
        k(  316) = (   0.1666667   0.2916667   0.3333333), wk =   0.0034722
        k(  317) = (   0.1666667   0.2916667   0.3750000), wk =   0.0034722
        k(  318) = (   0.1666667   0.2916667   0.4166667), wk =   0.0034722
        k(  319) = (   0.1666667   0.2916667   0.4583333), wk =   0.0034722
        k(  320) = (   0.1666667   0.2916667  -0.5000000), wk =   0.0017361
        k(  321) = (   0.1666667   0.3333333   0.3333333), wk =   0.0017361
        k(  322) = (   0.1666667   0.3333333   0.3750000), wk =   0.0034722
        k(  323) = (   0.1666667   0.3333333   0.4166667), wk =   0.0034722
        k(  324) = (   0.1666667   0.3333333   0.4583333), wk =   0.0034722
        k(  325) = (   0.1666667   0.3333333  -0.5000000), wk =   0.0017361
        k(  326) = (   0.1666667   0.3750000   0.3750000), wk =   0.0017361
        k(  327) = (   0.1666667   0.3750000   0.4166667), wk =   0.0034722
        k(  328) = (   0.1666667   0.3750000   0.4583333), wk =   0.0034722
        k(  329) = (   0.1666667   0.3750000  -0.5000000), wk =   0.0017361
        k(  330) = (   0.1666667   0.4166667   0.4166667), wk =   0.0017361
        k(  331) = (   0.1666667   0.4166667   0.4583333), wk =   0.0034722
        k(  332) = (   0.1666667   0.4166667  -0.5000000), wk =   0.0017361
        k(  333) = (   0.1666667   0.4583333   0.4583333), wk =   0.0017361
        k(  334) = (   0.1666667   0.4583333  -0.5000000), wk =   0.0017361
        k(  335) = (   0.1666667  -0.5000000  -0.5000000), wk =   0.0004340
        k(  336) = (   0.2083333   0.2083333   0.2083333), wk =   0.0005787
        k(  337) = (   0.2083333   0.2083333   0.2500000), wk =   0.0017361
        k(  338) = (   0.2083333   0.2083333   0.2916667), wk =   0.0017361
        k(  339) = (   0.2083333   0.2083333   0.3333333), wk =   0.0017361
        k(  340) = (   0.2083333   0.2083333   0.3750000), wk =   0.0017361
        k(  341) = (   0.2083333   0.2083333   0.4166667), wk =   0.0017361
        k(  342) = (   0.2083333   0.2083333   0.4583333), wk =   0.0017361
        k(  343) = (   0.2083333   0.2083333  -0.5000000), wk =   0.0008681
        k(  344) = (   0.2083333   0.2500000   0.2500000), wk =   0.0017361
        k(  345) = (   0.2083333   0.2500000   0.2916667), wk =   0.0034722
        k(  346) = (   0.2083333   0.2500000   0.3333333), wk =   0.0034722
        k(  347) = (   0.2083333   0.2500000   0.3750000), wk =   0.0034722
        k(  348) = (   0.2083333   0.2500000   0.4166667), wk =   0.0034722
        k(  349) = (   0.2083333   0.2500000   0.4583333), wk =   0.0034722
        k(  350) = (   0.2083333   0.2500000  -0.5000000), wk =   0.0017361
        k(  351) = (   0.2083333   0.2916667   0.2916667), wk =   0.0017361
        k(  352) = (   0.2083333   0.2916667   0.3333333), wk =   0.0034722
        k(  353) = (   0.2083333   0.2916667   0.3750000), wk =   0.0034722
        k(  354) = (   0.2083333   0.2916667   0.4166667), wk =   0.0034722
        k(  355) = (   0.2083333   0.2916667   0.4583333), wk =   0.0034722
        k(  356) = (   0.2083333   0.2916667  -0.5000000), wk =   0.0017361
        k(  357) = (   0.2083333   0.3333333   0.3333333), wk =   0.0017361
        k(  358) = (   0.2083333   0.3333333   0.3750000), wk =   0.0034722
        k(  359) = (   0.2083333   0.3333333   0.4166667), wk =   0.0034722
        k(  360) = (   0.2083333   0.3333333   0.4583333), wk =   0.0034722
        k(  361) = (   0.2083333   0.3333333  -0.5000000), wk =   0.0017361
        k(  362) = (   0.2083333   0.3750000   0.3750000), wk =   0.0017361
        k(  363) = (   0.2083333   0.3750000   0.4166667), wk =   0.0034722
        k(  364) = (   0.2083333   0.3750000   0.4583333), wk =   0.0034722
        k(  365) = (   0.2083333   0.3750000  -0.5000000), wk =   0.0017361
        k(  366) = (   0.2083333   0.4166667   0.4166667), wk =   0.0017361
        k(  367) = (   0.2083333   0.4166667   0.4583333), wk =   0.0034722
        k(  368) = (   0.2083333   0.4166667  -0.5000000), wk =   0.0017361
        k(  369) = (   0.2083333   0.4583333   0.4583333), wk =   0.0017361
        k(  370) = (   0.2083333   0.4583333  -0.5000000), wk =   0.0017361
        k(  371) = (   0.2083333  -0.5000000  -0.5000000), wk =   0.0004340
        k(  372) = (   0.2500000   0.2500000   0.2500000), wk =   0.0005787
        k(  373) = (   0.2500000   0.2500000   0.2916667), wk =   0.0017361
        k(  374) = (   0.2500000   0.2500000   0.3333333), wk =   0.0017361
        k(  375) = (   0.2500000   0.2500000   0.3750000), wk =   0.0017361
        k(  376) = (   0.2500000   0.2500000   0.4166667), wk =   0.0017361
        k(  377) = (   0.2500000   0.2500000   0.4583333), wk =   0.0017361
        k(  378) = (   0.2500000   0.2500000  -0.5000000), wk =   0.0008681
        k(  379) = (   0.2500000   0.2916667   0.2916667), wk =   0.0017361
        k(  380) = (   0.2500000   0.2916667   0.3333333), wk =   0.0034722
        k(  381) = (   0.2500000   0.2916667   0.3750000), wk =   0.0034722
        k(  382) = (   0.2500000   0.2916667   0.4166667), wk =   0.0034722
        k(  383) = (   0.2500000   0.2916667   0.4583333), wk =   0.0034722
        k(  384) = (   0.2500000   0.2916667  -0.5000000), wk =   0.0017361
        k(  385) = (   0.2500000   0.3333333   0.3333333), wk =   0.0017361
        k(  386) = (   0.2500000   0.3333333   0.3750000), wk =   0.0034722
        k(  387) = (   0.2500000   0.3333333   0.4166667), wk =   0.0034722
        k(  388) = (   0.2500000   0.3333333   0.4583333), wk =   0.0034722
        k(  389) = (   0.2500000   0.3333333  -0.5000000), wk =   0.0017361
        k(  390) = (   0.2500000   0.3750000   0.3750000), wk =   0.0017361
        k(  391) = (   0.2500000   0.3750000   0.4166667), wk =   0.0034722
        k(  392) = (   0.2500000   0.3750000   0.4583333), wk =   0.0034722
        k(  393) = (   0.2500000   0.3750000  -0.5000000), wk =   0.0017361
        k(  394) = (   0.2500000   0.4166667   0.4166667), wk =   0.0017361
        k(  395) = (   0.2500000   0.4166667   0.4583333), wk =   0.0034722
        k(  396) = (   0.2500000   0.4166667  -0.5000000), wk =   0.0017361
        k(  397) = (   0.2500000   0.4583333   0.4583333), wk =   0.0017361
        k(  398) = (   0.2500000   0.4583333  -0.5000000), wk =   0.0017361
        k(  399) = (   0.2500000  -0.5000000  -0.5000000), wk =   0.0004340
        k(  400) = (   0.2916667   0.2916667   0.2916667), wk =   0.0005787
        k(  401) = (   0.2916667   0.2916667   0.3333333), wk =   0.0017361
        k(  402) = (   0.2916667   0.2916667   0.3750000), wk =   0.0017361
        k(  403) = (   0.2916667   0.2916667   0.4166667), wk =   0.0017361
        k(  404) = (   0.2916667   0.2916667   0.4583333), wk =   0.0017361
        k(  405) = (   0.2916667   0.2916667  -0.5000000), wk =   0.0008681
        k(  406) = (   0.2916667   0.3333333   0.3333333), wk =   0.0017361
        k(  407) = (   0.2916667   0.3333333   0.3750000), wk =   0.0034722
        k(  408) = (   0.2916667   0.3333333   0.4166667), wk =   0.0034722
        k(  409) = (   0.2916667   0.3333333   0.4583333), wk =   0.0034722
        k(  410) = (   0.2916667   0.3333333  -0.5000000), wk =   0.0017361
        k(  411) = (   0.2916667   0.3750000   0.3750000), wk =   0.0017361
        k(  412) = (   0.2916667   0.3750000   0.4166667), wk =   0.0034722
        k(  413) = (   0.2916667   0.3750000   0.4583333), wk =   0.0034722
        k(  414) = (   0.2916667   0.3750000  -0.5000000), wk =   0.0017361
        k(  415) = (   0.2916667   0.4166667   0.4166667), wk =   0.0017361
        k(  416) = (   0.2916667   0.4166667   0.4583333), wk =   0.0034722
        k(  417) = (   0.2916667   0.4166667  -0.5000000), wk =   0.0017361
        k(  418) = (   0.2916667   0.4583333   0.4583333), wk =   0.0017361
        k(  419) = (   0.2916667   0.4583333  -0.5000000), wk =   0.0017361
        k(  420) = (   0.2916667  -0.5000000  -0.5000000), wk =   0.0004340
        k(  421) = (   0.3333333   0.3333333   0.3333333), wk =   0.0005787
        k(  422) = (   0.3333333   0.3333333   0.3750000), wk =   0.0017361
        k(  423) = (   0.3333333   0.3333333   0.4166667), wk =   0.0017361
        k(  424) = (   0.3333333   0.3333333   0.4583333), wk =   0.0017361
        k(  425) = (   0.3333333   0.3333333  -0.5000000), wk =   0.0008681
        k(  426) = (   0.3333333   0.3750000   0.3750000), wk =   0.0017361
        k(  427) = (   0.3333333   0.3750000   0.4166667), wk =   0.0034722
        k(  428) = (   0.3333333   0.3750000   0.4583333), wk =   0.0034722
        k(  429) = (   0.3333333   0.3750000  -0.5000000), wk =   0.0017361
        k(  430) = (   0.3333333   0.4166667   0.4166667), wk =   0.0017361
        k(  431) = (   0.3333333   0.4166667   0.4583333), wk =   0.0034722
        k(  432) = (   0.3333333   0.4166667  -0.5000000), wk =   0.0017361
        k(  433) = (   0.3333333   0.4583333   0.4583333), wk =   0.0017361
        k(  434) = (   0.3333333   0.4583333  -0.5000000), wk =   0.0017361
        k(  435) = (   0.3333333  -0.5000000  -0.5000000), wk =   0.0004340
        k(  436) = (   0.3750000   0.3750000   0.3750000), wk =   0.0005787
        k(  437) = (   0.3750000   0.3750000   0.4166667), wk =   0.0017361
        k(  438) = (   0.3750000   0.3750000   0.4583333), wk =   0.0017361
        k(  439) = (   0.3750000   0.3750000  -0.5000000), wk =   0.0008681
        k(  440) = (   0.3750000   0.4166667   0.4166667), wk =   0.0017361
        k(  441) = (   0.3750000   0.4166667   0.4583333), wk =   0.0034722
        k(  442) = (   0.3750000   0.4166667  -0.5000000), wk =   0.0017361
        k(  443) = (   0.3750000   0.4583333   0.4583333), wk =   0.0017361
        k(  444) = (   0.3750000   0.4583333  -0.5000000), wk =   0.0017361
        k(  445) = (   0.3750000  -0.5000000  -0.5000000), wk =   0.0004340
        k(  446) = (   0.4166667   0.4166667   0.4166667), wk =   0.0005787
        k(  447) = (   0.4166667   0.4166667   0.4583333), wk =   0.0017361
        k(  448) = (   0.4166667   0.4166667  -0.5000000), wk =   0.0008681
        k(  449) = (   0.4166667   0.4583333   0.4583333), wk =   0.0017361
        k(  450) = (   0.4166667   0.4583333  -0.5000000), wk =   0.0017361
        k(  451) = (   0.4166667  -0.5000000  -0.5000000), wk =   0.0004340
        k(  452) = (   0.4583333   0.4583333   0.4583333), wk =   0.0005787
        k(  453) = (   0.4583333   0.4583333  -0.5000000), wk =   0.0008681
        k(  454) = (   0.4583333  -0.5000000  -0.5000000), wk =   0.0004340
        k(  455) = (  -0.5000000  -0.5000000  -0.5000000), wk =   0.0000723

                       cryst. coord.
        k(    1) = (   0.0000000   0.0000000   0.0000000), wk =   0.0000723
        k(    2) = (   0.0000000   0.0000000   0.0416667), wk =   0.0004340
        k(    3) = (   0.0000000   0.0000000   0.0833333), wk =   0.0004340
        k(    4) = (   0.0000000   0.0000000   0.1250000), wk =   0.0004340
        k(    5) = (   0.0000000   0.0000000   0.1666667), wk =   0.0004340
        k(    6) = (   0.0000000   0.0000000   0.2083333), wk =   0.0004340
        k(    7) = (   0.0000000   0.0000000   0.2500000), wk =   0.0004340
        k(    8) = (   0.0000000   0.0000000   0.2916667), wk =   0.0004340
        k(    9) = (   0.0000000   0.0000000   0.3333333), wk =   0.0004340
        k(   10) = (   0.0000000   0.0000000   0.3750000), wk =   0.0004340
        k(   11) = (   0.0000000   0.0000000   0.4166667), wk =   0.0004340
        k(   12) = (   0.0000000   0.0000000   0.4583333), wk =   0.0004340
        k(   13) = (   0.0000000   0.0000000  -0.5000000), wk =   0.0002170
        k(   14) = (   0.0000000   0.0416667   0.0416667), wk =   0.0008681
        k(   15) = (   0.0000000   0.0416667   0.0833333), wk =   0.0017361
        k(   16) = (   0.0000000   0.0416667   0.1250000), wk =   0.0017361
        k(   17) = (   0.0000000   0.0416667   0.1666667), wk =   0.0017361
        k(   18) = (   0.0000000   0.0416667   0.2083333), wk =   0.0017361
        k(   19) = (   0.0000000   0.0416667   0.2500000), wk =   0.0017361
        k(   20) = (   0.0000000   0.0416667   0.2916667), wk =   0.0017361
        k(   21) = (   0.0000000   0.0416667   0.3333333), wk =   0.0017361
        k(   22) = (   0.0000000   0.0416667   0.3750000), wk =   0.0017361
        k(   23) = (   0.0000000   0.0416667   0.4166667), wk =   0.0017361
        k(   24) = (   0.0000000   0.0416667   0.4583333), wk =   0.0017361
        k(   25) = (   0.0000000   0.0416667  -0.5000000), wk =   0.0008681
        k(   26) = (   0.0000000   0.0833333   0.0833333), wk =   0.0008681
        k(   27) = (   0.0000000   0.0833333   0.1250000), wk =   0.0017361
        k(   28) = (   0.0000000   0.0833333   0.1666667), wk =   0.0017361
        k(   29) = (   0.0000000   0.0833333   0.2083333), wk =   0.0017361
        k(   30) = (   0.0000000   0.0833333   0.2500000), wk =   0.0017361
        k(   31) = (   0.0000000   0.0833333   0.2916667), wk =   0.0017361
        k(   32) = (   0.0000000   0.0833333   0.3333333), wk =   0.0017361
        k(   33) = (   0.0000000   0.0833333   0.3750000), wk =   0.0017361
        k(   34) = (   0.0000000   0.0833333   0.4166667), wk =   0.0017361
        k(   35) = (   0.0000000   0.0833333   0.4583333), wk =   0.0017361
        k(   36) = (   0.0000000   0.0833333  -0.5000000), wk =   0.0008681
        k(   37) = (   0.0000000   0.1250000   0.1250000), wk =   0.0008681
        k(   38) = (   0.0000000   0.1250000   0.1666667), wk =   0.0017361
        k(   39) = (   0.0000000   0.1250000   0.2083333), wk =   0.0017361
        k(   40) = (   0.0000000   0.1250000   0.2500000), wk =   0.0017361
        k(   41) = (   0.0000000   0.1250000   0.2916667), wk =   0.0017361
        k(   42) = (   0.0000000   0.1250000   0.3333333), wk =   0.0017361
        k(   43) = (   0.0000000   0.1250000   0.3750000), wk =   0.0017361
        k(   44) = (   0.0000000   0.1250000   0.4166667), wk =   0.0017361
        k(   45) = (   0.0000000   0.1250000   0.4583333), wk =   0.0017361
        k(   46) = (   0.0000000   0.1250000  -0.5000000), wk =   0.0008681
        k(   47) = (   0.0000000   0.1666667   0.1666667), wk =   0.0008681
        k(   48) = (   0.0000000   0.1666667   0.2083333), wk =   0.0017361
        k(   49) = (   0.0000000   0.1666667   0.2500000), wk =   0.0017361
        k(   50) = (   0.0000000   0.1666667   0.2916667), wk =   0.0017361
        k(   51) = (   0.0000000   0.1666667   0.3333333), wk =   0.0017361
        k(   52) = (   0.0000000   0.1666667   0.3750000), wk =   0.0017361
        k(   53) = (   0.0000000   0.1666667   0.4166667), wk =   0.0017361
        k(   54) = (   0.0000000   0.1666667   0.4583333), wk =   0.0017361
        k(   55) = (   0.0000000   0.1666667  -0.5000000), wk =   0.0008681
        k(   56) = (   0.0000000   0.2083333   0.2083333), wk =   0.0008681
        k(   57) = (   0.0000000   0.2083333   0.2500000), wk =   0.0017361
        k(   58) = (   0.0000000   0.2083333   0.2916667), wk =   0.0017361
        k(   59) = (   0.0000000   0.2083333   0.3333333), wk =   0.0017361
        k(   60) = (   0.0000000   0.2083333   0.3750000), wk =   0.0017361
        k(   61) = (   0.0000000   0.2083333   0.4166667), wk =   0.0017361
        k(   62) = (   0.0000000   0.2083333   0.4583333), wk =   0.0017361
        k(   63) = (   0.0000000   0.2083333  -0.5000000), wk =   0.0008681
        k(   64) = (   0.0000000   0.2500000   0.2500000), wk =   0.0008681
        k(   65) = (   0.0000000   0.2500000   0.2916667), wk =   0.0017361
        k(   66) = (   0.0000000   0.2500000   0.3333333), wk =   0.0017361
        k(   67) = (   0.0000000   0.2500000   0.3750000), wk =   0.0017361
        k(   68) = (   0.0000000   0.2500000   0.4166667), wk =   0.0017361
        k(   69) = (   0.0000000   0.2500000   0.4583333), wk =   0.0017361
        k(   70) = (   0.0000000   0.2500000  -0.5000000), wk =   0.0008681
        k(   71) = (   0.0000000   0.2916667   0.2916667), wk =   0.0008681
        k(   72) = (   0.0000000   0.2916667   0.3333333), wk =   0.0017361
        k(   73) = (   0.0000000   0.2916667   0.3750000), wk =   0.0017361
        k(   74) = (   0.0000000   0.2916667   0.4166667), wk =   0.0017361
        k(   75) = (   0.0000000   0.2916667   0.4583333), wk =   0.0017361
        k(   76) = (   0.0000000   0.2916667  -0.5000000), wk =   0.0008681
        k(   77) = (   0.0000000   0.3333333   0.3333333), wk =   0.0008681
        k(   78) = (   0.0000000   0.3333333   0.3750000), wk =   0.0017361
        k(   79) = (   0.0000000   0.3333333   0.4166667), wk =   0.0017361
        k(   80) = (   0.0000000   0.3333333   0.4583333), wk =   0.0017361
        k(   81) = (   0.0000000   0.3333333  -0.5000000), wk =   0.0008681
        k(   82) = (   0.0000000   0.3750000   0.3750000), wk =   0.0008681
        k(   83) = (   0.0000000   0.3750000   0.4166667), wk =   0.0017361
        k(   84) = (   0.0000000   0.3750000   0.4583333), wk =   0.0017361
        k(   85) = (   0.0000000   0.3750000  -0.5000000), wk =   0.0008681
        k(   86) = (   0.0000000   0.4166667   0.4166667), wk =   0.0008681
        k(   87) = (   0.0000000   0.4166667   0.4583333), wk =   0.0017361
        k(   88) = (   0.0000000   0.4166667  -0.5000000), wk =   0.0008681
        k(   89) = (   0.0000000   0.4583333   0.4583333), wk =   0.0008681
        k(   90) = (   0.0000000   0.4583333  -0.5000000), wk =   0.0008681
        k(   91) = (   0.0000000  -0.5000000  -0.5000000), wk =   0.0002170
        k(   92) = (   0.0416667   0.0416667   0.0416667), wk =   0.0005787
        k(   93) = (   0.0416667   0.0416667   0.0833333), wk =   0.0017361
        k(   94) = (   0.0416667   0.0416667   0.1250000), wk =   0.0017361
        k(   95) = (   0.0416667   0.0416667   0.1666667), wk =   0.0017361
        k(   96) = (   0.0416667   0.0416667   0.2083333), wk =   0.0017361
        k(   97) = (   0.0416667   0.0416667   0.2500000), wk =   0.0017361
        k(   98) = (   0.0416667   0.0416667   0.2916667), wk =   0.0017361
        k(   99) = (   0.0416667   0.0416667   0.3333333), wk =   0.0017361
        k(  100) = (   0.0416667   0.0416667   0.3750000), wk =   0.0017361
        k(  101) = (   0.0416667   0.0416667   0.4166667), wk =   0.0017361
        k(  102) = (   0.0416667   0.0416667   0.4583333), wk =   0.0017361
        k(  103) = (   0.0416667   0.0416667  -0.5000000), wk =   0.0008681
        k(  104) = (   0.0416667   0.0833333   0.0833333), wk =   0.0017361
        k(  105) = (   0.0416667   0.0833333   0.1250000), wk =   0.0034722
        k(  106) = (   0.0416667   0.0833333   0.1666667), wk =   0.0034722
        k(  107) = (   0.0416667   0.0833333   0.2083333), wk =   0.0034722
        k(  108) = (   0.0416667   0.0833333   0.2500000), wk =   0.0034722
        k(  109) = (   0.0416667   0.0833333   0.2916667), wk =   0.0034722
        k(  110) = (   0.0416667   0.0833333   0.3333333), wk =   0.0034722
        k(  111) = (   0.0416667   0.0833333   0.3750000), wk =   0.0034722
        k(  112) = (   0.0416667   0.0833333   0.4166667), wk =   0.0034722
        k(  113) = (   0.0416667   0.0833333   0.4583333), wk =   0.0034722
        k(  114) = (   0.0416667   0.0833333  -0.5000000), wk =   0.0017361
        k(  115) = (   0.0416667   0.1250000   0.1250000), wk =   0.0017361
        k(  116) = (   0.0416667   0.1250000   0.1666667), wk =   0.0034722
        k(  117) = (   0.0416667   0.1250000   0.2083333), wk =   0.0034722
        k(  118) = (   0.0416667   0.1250000   0.2500000), wk =   0.0034722
        k(  119) = (   0.0416667   0.1250000   0.2916667), wk =   0.0034722
        k(  120) = (   0.0416667   0.1250000   0.3333333), wk =   0.0034722
        k(  121) = (   0.0416667   0.1250000   0.3750000), wk =   0.0034722
        k(  122) = (   0.0416667   0.1250000   0.4166667), wk =   0.0034722
        k(  123) = (   0.0416667   0.1250000   0.4583333), wk =   0.0034722
        k(  124) = (   0.0416667   0.1250000  -0.5000000), wk =   0.0017361
        k(  125) = (   0.0416667   0.1666667   0.1666667), wk =   0.0017361
        k(  126) = (   0.0416667   0.1666667   0.2083333), wk =   0.0034722
        k(  127) = (   0.0416667   0.1666667   0.2500000), wk =   0.0034722
        k(  128) = (   0.0416667   0.1666667   0.2916667), wk =   0.0034722
        k(  129) = (   0.0416667   0.1666667   0.3333333), wk =   0.0034722
        k(  130) = (   0.0416667   0.1666667   0.3750000), wk =   0.0034722
        k(  131) = (   0.0416667   0.1666667   0.4166667), wk =   0.0034722
        k(  132) = (   0.0416667   0.1666667   0.4583333), wk =   0.0034722
        k(  133) = (   0.0416667   0.1666667  -0.5000000), wk =   0.0017361
        k(  134) = (   0.0416667   0.2083333   0.2083333), wk =   0.0017361
        k(  135) = (   0.0416667   0.2083333   0.2500000), wk =   0.0034722
        k(  136) = (   0.0416667   0.2083333   0.2916667), wk =   0.0034722
        k(  137) = (   0.0416667   0.2083333   0.3333333), wk =   0.0034722
        k(  138) = (   0.0416667   0.2083333   0.3750000), wk =   0.0034722
        k(  139) = (   0.0416667   0.2083333   0.4166667), wk =   0.0034722
        k(  140) = (   0.0416667   0.2083333   0.4583333), wk =   0.0034722
        k(  141) = (   0.0416667   0.2083333  -0.5000000), wk =   0.0017361
        k(  142) = (   0.0416667   0.2500000   0.2500000), wk =   0.0017361
        k(  143) = (   0.0416667   0.2500000   0.2916667), wk =   0.0034722
        k(  144) = (   0.0416667   0.2500000   0.3333333), wk =   0.0034722
        k(  145) = (   0.0416667   0.2500000   0.3750000), wk =   0.0034722
        k(  146) = (   0.0416667   0.2500000   0.4166667), wk =   0.0034722
        k(  147) = (   0.0416667   0.2500000   0.4583333), wk =   0.0034722
        k(  148) = (   0.0416667   0.2500000  -0.5000000), wk =   0.0017361
        k(  149) = (   0.0416667   0.2916667   0.2916667), wk =   0.0017361
        k(  150) = (   0.0416667   0.2916667   0.3333333), wk =   0.0034722
        k(  151) = (   0.0416667   0.2916667   0.3750000), wk =   0.0034722
        k(  152) = (   0.0416667   0.2916667   0.4166667), wk =   0.0034722
        k(  153) = (   0.0416667   0.2916667   0.4583333), wk =   0.0034722
        k(  154) = (   0.0416667   0.2916667  -0.5000000), wk =   0.0017361
        k(  155) = (   0.0416667   0.3333333   0.3333333), wk =   0.0017361
        k(  156) = (   0.0416667   0.3333333   0.3750000), wk =   0.0034722
        k(  157) = (   0.0416667   0.3333333   0.4166667), wk =   0.0034722
        k(  158) = (   0.0416667   0.3333333   0.4583333), wk =   0.0034722
        k(  159) = (   0.0416667   0.3333333  -0.5000000), wk =   0.0017361
        k(  160) = (   0.0416667   0.3750000   0.3750000), wk =   0.0017361
        k(  161) = (   0.0416667   0.3750000   0.4166667), wk =   0.0034722
        k(  162) = (   0.0416667   0.3750000   0.4583333), wk =   0.0034722
        k(  163) = (   0.0416667   0.3750000  -0.5000000), wk =   0.0017361
        k(  164) = (   0.0416667   0.4166667   0.4166667), wk =   0.0017361
        k(  165) = (   0.0416667   0.4166667   0.4583333), wk =   0.0034722
        k(  166) = (   0.0416667   0.4166667  -0.5000000), wk =   0.0017361
        k(  167) = (   0.0416667   0.4583333   0.4583333), wk =   0.0017361
        k(  168) = (   0.0416667   0.4583333  -0.5000000), wk =   0.0017361
        k(  169) = (   0.0416667  -0.5000000  -0.5000000), wk =   0.0004340
        k(  170) = (   0.0833333   0.0833333   0.0833333), wk =   0.0005787
        k(  171) = (   0.0833333   0.0833333   0.1250000), wk =   0.0017361
        k(  172) = (   0.0833333   0.0833333   0.1666667), wk =   0.0017361
        k(  173) = (   0.0833333   0.0833333   0.2083333), wk =   0.0017361
        k(  174) = (   0.0833333   0.0833333   0.2500000), wk =   0.0017361
        k(  175) = (   0.0833333   0.0833333   0.2916667), wk =   0.0017361
        k(  176) = (   0.0833333   0.0833333   0.3333333), wk =   0.0017361
        k(  177) = (   0.0833333   0.0833333   0.3750000), wk =   0.0017361
        k(  178) = (   0.0833333   0.0833333   0.4166667), wk =   0.0017361
        k(  179) = (   0.0833333   0.0833333   0.4583333), wk =   0.0017361
        k(  180) = (   0.0833333   0.0833333  -0.5000000), wk =   0.0008681
        k(  181) = (   0.0833333   0.1250000   0.1250000), wk =   0.0017361
        k(  182) = (   0.0833333   0.1250000   0.1666667), wk =   0.0034722
        k(  183) = (   0.0833333   0.1250000   0.2083333), wk =   0.0034722
        k(  184) = (   0.0833333   0.1250000   0.2500000), wk =   0.0034722
        k(  185) = (   0.0833333   0.1250000   0.2916667), wk =   0.0034722
        k(  186) = (   0.0833333   0.1250000   0.3333333), wk =   0.0034722
        k(  187) = (   0.0833333   0.1250000   0.3750000), wk =   0.0034722
        k(  188) = (   0.0833333   0.1250000   0.4166667), wk =   0.0034722
        k(  189) = (   0.0833333   0.1250000   0.4583333), wk =   0.0034722
        k(  190) = (   0.0833333   0.1250000  -0.5000000), wk =   0.0017361
        k(  191) = (   0.0833333   0.1666667   0.1666667), wk =   0.0017361
        k(  192) = (   0.0833333   0.1666667   0.2083333), wk =   0.0034722
        k(  193) = (   0.0833333   0.1666667   0.2500000), wk =   0.0034722
        k(  194) = (   0.0833333   0.1666667   0.2916667), wk =   0.0034722
        k(  195) = (   0.0833333   0.1666667   0.3333333), wk =   0.0034722
        k(  196) = (   0.0833333   0.1666667   0.3750000), wk =   0.0034722
        k(  197) = (   0.0833333   0.1666667   0.4166667), wk =   0.0034722
        k(  198) = (   0.0833333   0.1666667   0.4583333), wk =   0.0034722
        k(  199) = (   0.0833333   0.1666667  -0.5000000), wk =   0.0017361
        k(  200) = (   0.0833333   0.2083333   0.2083333), wk =   0.0017361
        k(  201) = (   0.0833333   0.2083333   0.2500000), wk =   0.0034722
        k(  202) = (   0.0833333   0.2083333   0.2916667), wk =   0.0034722
        k(  203) = (   0.0833333   0.2083333   0.3333333), wk =   0.0034722
        k(  204) = (   0.0833333   0.2083333   0.3750000), wk =   0.0034722
        k(  205) = (   0.0833333   0.2083333   0.4166667), wk =   0.0034722
        k(  206) = (   0.0833333   0.2083333   0.4583333), wk =   0.0034722
        k(  207) = (   0.0833333   0.2083333  -0.5000000), wk =   0.0017361
        k(  208) = (   0.0833333   0.2500000   0.2500000), wk =   0.0017361
        k(  209) = (   0.0833333   0.2500000   0.2916667), wk =   0.0034722
        k(  210) = (   0.0833333   0.2500000   0.3333333), wk =   0.0034722
        k(  211) = (   0.0833333   0.2500000   0.3750000), wk =   0.0034722
        k(  212) = (   0.0833333   0.2500000   0.4166667), wk =   0.0034722
        k(  213) = (   0.0833333   0.2500000   0.4583333), wk =   0.0034722
        k(  214) = (   0.0833333   0.2500000  -0.5000000), wk =   0.0017361
        k(  215) = (   0.0833333   0.2916667   0.2916667), wk =   0.0017361
        k(  216) = (   0.0833333   0.2916667   0.3333333), wk =   0.0034722
        k(  217) = (   0.0833333   0.2916667   0.3750000), wk =   0.0034722
        k(  218) = (   0.0833333   0.2916667   0.4166667), wk =   0.0034722
        k(  219) = (   0.0833333   0.2916667   0.4583333), wk =   0.0034722
        k(  220) = (   0.0833333   0.2916667  -0.5000000), wk =   0.0017361
        k(  221) = (   0.0833333   0.3333333   0.3333333), wk =   0.0017361
        k(  222) = (   0.0833333   0.3333333   0.3750000), wk =   0.0034722
        k(  223) = (   0.0833333   0.3333333   0.4166667), wk =   0.0034722
        k(  224) = (   0.0833333   0.3333333   0.4583333), wk =   0.0034722
        k(  225) = (   0.0833333   0.3333333  -0.5000000), wk =   0.0017361
        k(  226) = (   0.0833333   0.3750000   0.3750000), wk =   0.0017361
        k(  227) = (   0.0833333   0.3750000   0.4166667), wk =   0.0034722
        k(  228) = (   0.0833333   0.3750000   0.4583333), wk =   0.0034722
        k(  229) = (   0.0833333   0.3750000  -0.5000000), wk =   0.0017361
        k(  230) = (   0.0833333   0.4166667   0.4166667), wk =   0.0017361
        k(  231) = (   0.0833333   0.4166667   0.4583333), wk =   0.0034722
        k(  232) = (   0.0833333   0.4166667  -0.5000000), wk =   0.0017361
        k(  233) = (   0.0833333   0.4583333   0.4583333), wk =   0.0017361
        k(  234) = (   0.0833333   0.4583333  -0.5000000), wk =   0.0017361
        k(  235) = (   0.0833333  -0.5000000  -0.5000000), wk =   0.0004340
        k(  236) = (   0.1250000   0.1250000   0.1250000), wk =   0.0005787
        k(  237) = (   0.1250000   0.1250000   0.1666667), wk =   0.0017361
        k(  238) = (   0.1250000   0.1250000   0.2083333), wk =   0.0017361
        k(  239) = (   0.1250000   0.1250000   0.2500000), wk =   0.0017361
        k(  240) = (   0.1250000   0.1250000   0.2916667), wk =   0.0017361
        k(  241) = (   0.1250000   0.1250000   0.3333333), wk =   0.0017361
        k(  242) = (   0.1250000   0.1250000   0.3750000), wk =   0.0017361
        k(  243) = (   0.1250000   0.1250000   0.4166667), wk =   0.0017361
        k(  244) = (   0.1250000   0.1250000   0.4583333), wk =   0.0017361
        k(  245) = (   0.1250000   0.1250000  -0.5000000), wk =   0.0008681
        k(  246) = (   0.1250000   0.1666667   0.1666667), wk =   0.0017361
        k(  247) = (   0.1250000   0.1666667   0.2083333), wk =   0.0034722
        k(  248) = (   0.1250000   0.1666667   0.2500000), wk =   0.0034722
        k(  249) = (   0.1250000   0.1666667   0.2916667), wk =   0.0034722
        k(  250) = (   0.1250000   0.1666667   0.3333333), wk =   0.0034722
        k(  251) = (   0.1250000   0.1666667   0.3750000), wk =   0.0034722
        k(  252) = (   0.1250000   0.1666667   0.4166667), wk =   0.0034722
        k(  253) = (   0.1250000   0.1666667   0.4583333), wk =   0.0034722
        k(  254) = (   0.1250000   0.1666667  -0.5000000), wk =   0.0017361
        k(  255) = (   0.1250000   0.2083333   0.2083333), wk =   0.0017361
        k(  256) = (   0.1250000   0.2083333   0.2500000), wk =   0.0034722
        k(  257) = (   0.1250000   0.2083333   0.2916667), wk =   0.0034722
        k(  258) = (   0.1250000   0.2083333   0.3333333), wk =   0.0034722
        k(  259) = (   0.1250000   0.2083333   0.3750000), wk =   0.0034722
        k(  260) = (   0.1250000   0.2083333   0.4166667), wk =   0.0034722
        k(  261) = (   0.1250000   0.2083333   0.4583333), wk =   0.0034722
        k(  262) = (   0.1250000   0.2083333  -0.5000000), wk =   0.0017361
        k(  263) = (   0.1250000   0.2500000   0.2500000), wk =   0.0017361
        k(  264) = (   0.1250000   0.2500000   0.2916667), wk =   0.0034722
        k(  265) = (   0.1250000   0.2500000   0.3333333), wk =   0.0034722
        k(  266) = (   0.1250000   0.2500000   0.3750000), wk =   0.0034722
        k(  267) = (   0.1250000   0.2500000   0.4166667), wk =   0.0034722
        k(  268) = (   0.1250000   0.2500000   0.4583333), wk =   0.0034722
        k(  269) = (   0.1250000   0.2500000  -0.5000000), wk =   0.0017361
        k(  270) = (   0.1250000   0.2916667   0.2916667), wk =   0.0017361
        k(  271) = (   0.1250000   0.2916667   0.3333333), wk =   0.0034722
        k(  272) = (   0.1250000   0.2916667   0.3750000), wk =   0.0034722
        k(  273) = (   0.1250000   0.2916667   0.4166667), wk =   0.0034722
        k(  274) = (   0.1250000   0.2916667   0.4583333), wk =   0.0034722
        k(  275) = (   0.1250000   0.2916667  -0.5000000), wk =   0.0017361
        k(  276) = (   0.1250000   0.3333333   0.3333333), wk =   0.0017361
        k(  277) = (   0.1250000   0.3333333   0.3750000), wk =   0.0034722
        k(  278) = (   0.1250000   0.3333333   0.4166667), wk =   0.0034722
        k(  279) = (   0.1250000   0.3333333   0.4583333), wk =   0.0034722
        k(  280) = (   0.1250000   0.3333333  -0.5000000), wk =   0.0017361
[...]
        k(  308) = (   0.1666667   0.2500000   0.2500000), wk =   0.0017361
        k(  309) = (   0.1666667   0.2500000   0.2916667), wk =   0.0034722
        k(  310) = (   0.1666667   0.2500000   0.3333333), wk =   0.0034722
        k(  311) = (   0.1666667   0.2500000   0.3750000), wk =   0.0034722
        k(  312) = (   0.1666667   0.2500000   0.4166667), wk =   0.0034722
        k(  313) = (   0.1666667   0.2500000   0.4583333), wk =   0.0034722
        k(  314) = (   0.1666667   0.2500000  -0.5000000), wk =   0.0017361
        k(  315) = (   0.1666667   0.2916667   0.2916667), wk =   0.0017361
        k(  316) = (   0.1666667   0.2916667   0.3333333), wk =   0.0034722
        k(  317) = (   0.1666667   0.2916667   0.3750000), wk =   0.0034722
        k(  318) = (   0.1666667   0.2916667   0.4166667), wk =   0.0034722
        k(  319) = (   0.1666667   0.2916667   0.4583333), wk =   0.0034722
        k(  320) = (   0.1666667   0.2916667  -0.5000000), wk =   0.0017361
        k(  321) = (   0.1666667   0.3333333   0.3333333), wk =   0.0017361
        k(  322) = (   0.1666667   0.3333333   0.3750000), wk =   0.0034722
        k(  323) = (   0.1666667   0.3333333   0.4166667), wk =   0.0034722
        k(  324) = (   0.1666667   0.3333333   0.4583333), wk =   0.0034722
        k(  325) = (   0.1666667   0.3333333  -0.5000000), wk =   0.0017361
        k(  326) = (   0.1666667   0.3750000   0.3750000), wk =   0.0017361
        k(  327) = (   0.1666667   0.3750000   0.4166667), wk =   0.0034722
        k(  328) = (   0.1666667   0.3750000   0.4583333), wk =   0.0034722
        k(  329) = (   0.1666667   0.3750000  -0.5000000), wk =   0.0017361
        k(  330) = (   0.1666667   0.4166667   0.4166667), wk =   0.0017361
        k(  331) = (   0.1666667   0.4166667   0.4583333), wk =   0.0034722
        k(  332) = (   0.1666667   0.4166667  -0.5000000), wk =   0.0017361
        k(  333) = (   0.1666667   0.4583333   0.4583333), wk =   0.0017361
        k(  334) = (   0.1666667   0.4583333  -0.5000000), wk =   0.0017361
        k(  335) = (   0.1666667  -0.5000000  -0.5000000), wk =   0.0004340
        k(  336) = (   0.2083333   0.2083333   0.2083333), wk =   0.0005787
        k(  337) = (   0.2083333   0.2083333   0.2500000), wk =   0.0017361
        k(  338) = (   0.2083333   0.2083333   0.2916667), wk =   0.0017361
        k(  339) = (   0.2083333   0.2083333   0.3333333), wk =   0.0017361
        k(  340) = (   0.2083333   0.2083333   0.3750000), wk =   0.0017361
        k(  341) = (   0.2083333   0.2083333   0.4166667), wk =   0.0017361
        k(  342) = (   0.2083333   0.2083333   0.4583333), wk =   0.0017361
        k(  343) = (   0.2083333   0.2083333  -0.5000000), wk =   0.0008681
        k(  344) = (   0.2083333   0.2500000   0.2500000), wk =   0.0017361
        k(  345) = (   0.2083333   0.2500000   0.2916667), wk =   0.0034722
        k(  346) = (   0.2083333   0.2500000   0.3333333), wk =   0.0034722
        k(  347) = (   0.2083333   0.2500000   0.3750000), wk =   0.0034722
        k(  348) = (   0.2083333   0.2500000   0.4166667), wk =   0.0034722
        k(  349) = (   0.2083333   0.2500000   0.4583333), wk =   0.0034722
        k(  350) = (   0.2083333   0.2500000  -0.5000000), wk =   0.0017361
        k(  351) = (   0.2083333   0.2916667   0.2916667), wk =   0.0017361
        k(  352) = (   0.2083333   0.2916667   0.3333333), wk =   0.0034722
        k(  353) = (   0.2083333   0.2916667   0.3750000), wk =   0.0034722
        k(  354) = (   0.2083333   0.2916667   0.4166667), wk =   0.0034722
        k(  355) = (   0.2083333   0.2916667   0.4583333), wk =   0.0034722
        k(  356) = (   0.2083333   0.2916667  -0.5000000), wk =   0.0017361
        k(  357) = (   0.2083333   0.3333333   0.3333333), wk =   0.0017361
        k(  358) = (   0.2083333   0.3333333   0.3750000), wk =   0.0034722
        k(  359) = (   0.2083333   0.3333333   0.4166667), wk =   0.0034722
        k(  360) = (   0.2083333   0.3333333   0.4583333), wk =   0.0034722
        k(  361) = (   0.2083333   0.3333333  -0.5000000), wk =   0.0017361
        k(  362) = (   0.2083333   0.3750000   0.3750000), wk =   0.0017361
        k(  363) = (   0.2083333   0.3750000   0.4166667), wk =   0.0034722
        k(  364) = (   0.2083333   0.3750000   0.4583333), wk =   0.0034722
        k(  365) = (   0.2083333   0.3750000  -0.5000000), wk =   0.0017361
        k(  366) = (   0.2083333   0.4166667   0.4166667), wk =   0.0017361
        k(  367) = (   0.2083333   0.4166667   0.4583333), wk =   0.0034722
        k(  368) = (   0.2083333   0.4166667  -0.5000000), wk =   0.0017361
        k(  369) = (   0.2083333   0.4583333   0.4583333), wk =   0.0017361
        k(  370) = (   0.2083333   0.4583333  -0.5000000), wk =   0.0017361
        k(  371) = (   0.2083333  -0.5000000  -0.5000000), wk =   0.0004340
        k(  372) = (   0.2500000   0.2500000   0.2500000), wk =   0.0005787
        k(  373) = (   0.2500000   0.2500000   0.2916667), wk =   0.0017361
        k(  374) = (   0.2500000   0.2500000   0.3333333), wk =   0.0017361
        k(  375) = (   0.2500000   0.2500000   0.3750000), wk =   0.0017361
        k(  376) = (   0.2500000   0.2500000   0.4166667), wk =   0.0017361
        k(  377) = (   0.2500000   0.2500000   0.4583333), wk =   0.0017361
        k(  378) = (   0.2500000   0.2500000  -0.5000000), wk =   0.0008681
        k(  379) = (   0.2500000   0.2916667   0.2916667), wk =   0.0017361
        k(  380) = (   0.2500000   0.2916667   0.3333333), wk =   0.0034722
        k(  381) = (   0.2500000   0.2916667   0.3750000), wk =   0.0034722
        k(  382) = (   0.2500000   0.2916667   0.4166667), wk =   0.0034722
        k(  383) = (   0.2500000   0.2916667   0.4583333), wk =   0.0034722
        k(  384) = (   0.2500000   0.2916667  -0.5000000), wk =   0.0017361
        k(  385) = (   0.2500000   0.3333333   0.3333333), wk =   0.0017361
        k(  386) = (   0.2500000   0.3333333   0.3750000), wk =   0.0034722
        k(  387) = (   0.2500000   0.3333333   0.4166667), wk =   0.0034722
        k(  388) = (   0.2500000   0.3333333   0.4583333), wk =   0.0034722
        k(  389) = (   0.2500000   0.3333333  -0.5000000), wk =   0.0017361
        k(  390) = (   0.2500000   0.3750000   0.3750000), wk =   0.0017361
        k(  391) = (   0.2500000   0.3750000   0.4166667), wk =   0.0034722
        k(  392) = (   0.2500000   0.3750000   0.4583333), wk =   0.0034722
        k(  393) = (   0.2500000   0.3750000  -0.5000000), wk =   0.0017361
        k(  394) = (   0.2500000   0.4166667   0.4166667), wk =   0.0017361
        k(  395) = (   0.2500000   0.4166667   0.4583333), wk =   0.0034722
        k(  396) = (   0.2500000   0.4166667  -0.5000000), wk =   0.0017361
        k(  397) = (   0.2500000   0.4583333   0.4583333), wk =   0.0017361
        k(  398) = (   0.2500000   0.4583333  -0.5000000), wk =   0.0017361
        k(  399) = (   0.2500000  -0.5000000  -0.5000000), wk =   0.0004340
        k(  400) = (   0.2916667   0.2916667   0.2916667), wk =   0.0005787
        k(  401) = (   0.2916667   0.2916667   0.3333333), wk =   0.0017361
        k(  402) = (   0.2916667   0.2916667   0.3750000), wk =   0.0017361
        k(  403) = (   0.2916667   0.2916667   0.4166667), wk =   0.0017361
        k(  404) = (   0.2916667   0.2916667   0.4583333), wk =   0.0017361
        k(  405) = (   0.2916667   0.2916667  -0.5000000), wk =   0.0008681
        k(  406) = (   0.2916667   0.3333333   0.3333333), wk =   0.0017361
        k(  407) = (   0.2916667   0.3333333   0.3750000), wk =   0.0034722
        k(  408) = (   0.2916667   0.3333333   0.4166667), wk =   0.0034722
        k(  409) = (   0.2916667   0.3333333   0.4583333), wk =   0.0034722
        k(  410) = (   0.2916667   0.3333333  -0.5000000), wk =   0.0017361
        k(  411) = (   0.2916667   0.3750000   0.3750000), wk =   0.0017361
        k(  412) = (   0.2916667   0.3750000   0.4166667), wk =   0.0034722
        k(  413) = (   0.2916667   0.3750000   0.4583333), wk =   0.0034722
        k(  414) = (   0.2916667   0.3750000  -0.5000000), wk =   0.0017361
        k(  415) = (   0.2916667   0.4166667   0.4166667), wk =   0.0017361
        k(  416) = (   0.2916667   0.4166667   0.4583333), wk =   0.0034722
        k(  417) = (   0.2916667   0.4166667  -0.5000000), wk =   0.0017361
        k(  418) = (   0.2916667   0.4583333   0.4583333), wk =   0.0017361
        k(  419) = (   0.2916667   0.4583333  -0.5000000), wk =   0.0017361
        k(  420) = (   0.2916667  -0.5000000  -0.5000000), wk =   0.0004340
        k(  421) = (   0.3333333   0.3333333   0.3333333), wk =   0.0005787
        k(  422) = (   0.3333333   0.3333333   0.3750000), wk =   0.0017361
        k(  423) = (   0.3333333   0.3333333   0.4166667), wk =   0.0017361
        k(  424) = (   0.3333333   0.3333333   0.4583333), wk =   0.0017361
        k(  425) = (   0.3333333   0.3333333  -0.5000000), wk =   0.0008681
        k(  426) = (   0.3333333   0.3750000   0.3750000), wk =   0.0017361
        k(  427) = (   0.3333333   0.3750000   0.4166667), wk =   0.0034722
        k(  428) = (   0.3333333   0.3750000   0.4583333), wk =   0.0034722
        k(  429) = (   0.3333333   0.3750000  -0.5000000), wk =   0.0017361
        k(  430) = (   0.3333333   0.4166667   0.4166667), wk =   0.0017361
        k(  431) = (   0.3333333   0.4166667   0.4583333), wk =   0.0034722
        k(  432) = (   0.3333333   0.4166667  -0.5000000), wk =   0.0017361
        k(  433) = (   0.3333333   0.4583333   0.4583333), wk =   0.0017361
        k(  434) = (   0.3333333   0.4583333  -0.5000000), wk =   0.0017361
        k(  435) = (   0.3333333  -0.5000000  -0.5000000), wk =   0.0004340
        k(  436) = (   0.3750000   0.3750000   0.3750000), wk =   0.0005787
        k(  437) = (   0.3750000   0.3750000   0.4166667), wk =   0.0017361
        k(  438) = (   0.3750000   0.3750000   0.4583333), wk =   0.0017361
        k(  439) = (   0.3750000   0.3750000  -0.5000000), wk =   0.0008681
        k(  440) = (   0.3750000   0.4166667   0.4166667), wk =   0.0017361
        k(  441) = (   0.3750000   0.4166667   0.4583333), wk =   0.0034722
        k(  442) = (   0.3750000   0.4166667  -0.5000000), wk =   0.0017361
        k(  443) = (   0.3750000   0.4583333   0.4583333), wk =   0.0017361
        k(  444) = (   0.3750000   0.4583333  -0.5000000), wk =   0.0017361
        k(  445) = (   0.3750000  -0.5000000  -0.5000000), wk =   0.0004340
        k(  446) = (   0.4166667   0.4166667   0.4166667), wk =   0.0005787
        k(  447) = (   0.4166667   0.4166667   0.4583333), wk =   0.0017361
        k(  448) = (   0.4166667   0.4166667  -0.5000000), wk =   0.0008681
        k(  449) = (   0.4166667   0.4583333   0.4583333), wk =   0.0017361
        k(  450) = (   0.4166667   0.4583333  -0.5000000), wk =   0.0017361
        k(  451) = (   0.4166667  -0.5000000  -0.5000000), wk =   0.0004340
        k(  452) = (   0.4583333   0.4583333   0.4583333), wk =   0.0005787
        k(  453) = (   0.4583333   0.4583333  -0.5000000), wk =   0.0008681
        k(  454) = (   0.4583333  -0.5000000  -0.5000000), wk =   0.0004340
        k(  455) = (  -0.5000000  -0.5000000  -0.5000000), wk =   0.0000723

     Dense  grid:    95433 G-vectors     FFT dimensions: (  60,  60,  60)

     Smooth grid:    18325 G-vectors     FFT dimensions: (  36,  36,  36)

     Dynamical RAM for                 wfc:       0.18 MB

     Dynamical RAM for     wfc (w. buffer):     159.58 MB

     Dynamical RAM for           str. fact:       0.36 MB

     Dynamical RAM for           local pot:       0.00 MB

     Dynamical RAM for          nlocal pot:       0.32 MB

     Dynamical RAM for                qrad:       2.64 MB

     Dynamical RAM for          rho,v,vnew:       4.66 MB

     Dynamical RAM for               rhoin:       1.55 MB

     Dynamical RAM for            rho*nmix:      11.65 MB

     Dynamical RAM for           G-vectors:       1.40 MB

     Dynamical RAM for          h,s,v(r/c):       0.07 MB

     Dynamical RAM for          <psi|beta>:       0.01 MB

     Dynamical RAM for                 psi:       0.35 MB

     Dynamical RAM for                hpsi:       0.35 MB

     Dynamical RAM for                spsi:       0.35 MB

     Dynamical RAM for      wfcinit/wfcrot:       0.36 MB

     Dynamical RAM for           addusdens:      68.80 MB

     Dynamical RAM for          addusforce:      69.55 MB

     Dynamical RAM for         addusstress:      73.72 MB

     Estimated static dynamical RAM per process >     173.70 MB

     Estimated max dynamical RAM per process >     259.07 MB

     Estimated total dynamical RAM >       1.01 GB
     Generating pointlists ...
     new r_m :   0.3572 (alat units)  1.9362 (a.u.) for type    1

     Initial potential from superposition of free atoms

     starting charge      31.9991, renormalised to      32.0000
     Starting wfcs are   20 randomized atomic wfcs
     Checking if some PAW data can be deallocated... 

     total cpu time spent up to now is     6371.6 secs

     per-process dynamical memory:   366.3 Mb

     Self-consistent Calculation

     iteration #  1     ecut=    90.00 Ry     beta= 0.20
     Davidson diagonalization with overlap

---- Real-time Memory Report at c_bands before calling an iterative solver
           413 MiB given to the printing process from OS
           357 MiB allocation reported by mallinfo(arena+hblkhd)
         73485 MiB available memory on the node where the printing process lives
------------------
     ethr =  1.00E-02,  avg # of iterations =  3.7

     total cpu time spent up to now is    29228.8 secs

     total energy              =    -658.21860574 Ry
     estimated scf accuracy    <       0.54028089 Ry

     total magnetization       =     6.42 Bohr mag/cell
     absolute magnetization    =     6.48 Bohr mag/cell

     iteration #  2     ecut=    90.00 Ry     beta= 0.20
     Davidson diagonalization with overlap

---- Real-time Memory Report at c_bands before calling an iterative solver
           487 MiB given to the printing process from OS
           366 MiB allocation reported by mallinfo(arena+hblkhd)
         72894 MiB available memory on the node where the printing process lives
------------------
     ethr =  1.69E-03,  avg # of iterations =  1.1

     negative rho (up, down):  0.000E+00 6.673E-04

     total cpu time spent up to now is    45540.7 secs

     total energy              =    -658.47359088 Ry
     estimated scf accuracy    <       0.36801694 Ry

     total magnetization       =     6.19 Bohr mag/cell
     absolute magnetization    =     6.31 Bohr mag/cell

     iteration #  3     ecut=    90.00 Ry     beta= 0.20
     Davidson diagonalization with overlap

---- Real-time Memory Report at c_bands before calling an iterative solver
           488 MiB given to the printing process from OS
           366 MiB allocation reported by mallinfo(arena+hblkhd)
        350637 MiB available memory on the node where the printing process lives
------------------
     ethr =  1.15E-03,  avg # of iterations =  1.6

     negative rho (up, down):  0.000E+00 8.444E-04

     total cpu time spent up to now is    63369.4 secs

     total energy              =    -658.55640597 Ry
     estimated scf accuracy    <       0.04890372 Ry

     total magnetization       =     5.11 Bohr mag/cell
     absolute magnetization    =     5.44 Bohr mag/cell

     iteration #  4     ecut=    90.00 Ry     beta= 0.20
     Davidson diagonalization with overlap

---- Real-time Memory Report at c_bands before calling an iterative solver
           488 MiB given to the printing process from OS
           367 MiB allocation reported by mallinfo(arena+hblkhd)
        249643 MiB available memory on the node where the printing process lives
------------------
     ethr =  1.53E-04,  avg # of iterations =  2.9

     negative rho (up, down):  0.000E+00 4.283E-04

     total cpu time spent up to now is    85270.6 secs

     total energy              =    -658.50145113 Ry
     estimated scf accuracy    <       0.15442857 Ry

     total magnetization       =     5.10 Bohr mag/cell
     absolute magnetization    =     5.40 Bohr mag/cell

     Maximum CPU time exceeded

     max_seconds     =   82800.00
     elapsed seconds =   85270.45
     Calculation stopped in scf loop at iteration #     4
     Message from routine punch:
     Nothing written, as per user request (disk_io='none')

     init_run     :   6410.49s CPU   6369.53s WALL (       1 calls)
     electrons    :  78588.42s CPU  78899.10s WALL (       1 calls)

     Called by init_run:
     wfcinit      :   6405.66s CPU   6364.46s WALL (       1 calls)
     wfcinit:atom :     29.96s CPU     29.30s WALL (     910 calls)
     wfcinit:wfcr :   6343.75s CPU   6304.98s WALL (     910 calls)
     potinit      :      3.17s CPU      3.30s WALL (       1 calls)
     hinit0       :      0.85s CPU      0.87s WALL (       1 calls)

     Called by electrons:
     c_bands      :  67015.59s CPU  67186.22s WALL (       4 calls)
     sum_band     :  11558.26s CPU  11697.84s WALL (       4 calls)
     v_of_rho     :      7.33s CPU      7.47s WALL (       5 calls)
     v_h          :      0.73s CPU      0.74s WALL (       5 calls)
     v_xc         :      6.60s CPU      6.73s WALL (       5 calls)
     newd         :      2.33s CPU      2.57s WALL (       5 calls)
     PAW_pot      :      4.75s CPU      4.91s WALL (       5 calls)
     mix_rho      :      1.77s CPU      1.80s WALL (       4 calls)

     Called by c_bands:
     init_us_2    :    269.92s CPU    269.31s WALL (    8190 calls)
     cegterg      :  66728.57s CPU  66893.85s WALL (    3640 calls)

     Called by sum_band:
     sum_band:wei :      0.08s CPU      0.09s WALL (       4 calls)
     sum_band:loo :  11555.74s CPU  11695.08s WALL (       4 calls)
     sum_band:buf :      0.24s CPU      0.26s WALL (    3640 calls)
     sum_band:ini :    125.65s CPU    126.71s WALL (    3640 calls)
     sum_band:cal :    186.31s CPU    193.31s WALL (    3640 calls)
     sum_band:bec :    255.50s CPU    257.33s WALL (    3640 calls)
     addusdens    :      0.82s CPU      1.03s WALL (       4 calls)
                                        0.00s GPU  (       4 calls)
     addusd:skk   :      0.00s CPU      0.00s WALL (       4 calls)
                                        0.00s GPU  (       4 calls)

     Called by *egterg:
     cdiaghg      :  19710.69s CPU  18967.98s WALL (   12045 calls)
     cegterg:over :    622.74s CPU    641.25s WALL (    8405 calls)
     cegterg:upda :    736.97s CPU    779.79s WALL (    8405 calls)
     cegterg:last :    397.23s CPU    480.01s WALL (    5978 calls)
     h_psi        :  49521.69s CPU  50180.59s WALL (   12955 calls)
     s_psi        :    466.48s CPU    501.73s WALL (   12955 calls)
     g_psi        :    315.71s CPU    312.80s WALL (    8405 calls)

     Called by h_psi:
     h_psi:calbec :    598.77s CPU    620.89s WALL (   12955 calls)
     vloc_psi     :  48012.60s CPU  48606.77s WALL (   12955 calls)
     add_vuspsi   :    407.42s CPU    450.12s WALL (   12955 calls)

     General routines
     calbec       :    785.03s CPU    814.12s WALL (   16595 calls)
     fft          :      9.61s CPU      9.79s WALL (     123 calls)
     ffts         :      1.60s CPU      1.62s WALL (      18 calls)
     fftw         :  33767.15s CPU  34327.22s WALL (  434710 calls)
     interpolate  :      1.65s CPU      1.66s WALL (      10 calls)

     Parallel routines

     PAW routines
     PAW_pot      :      4.75s CPU      4.91s WALL (       5 calls)
     PAW_symme    :      0.04s CPU      0.04s WALL (       9 calls)

     PWSCF        :  85000.83s CPU  85270.73s WALL


   This run was terminated on:  13:47:30  14May2025            

=------------------------------------------------------------------------------=
   JOB DONE.
=------------------------------------------------------------------------------=
