
     Program PWSCF v.7.3.1 starts on 29May2025 at 17:38: 6 

     This program is part of the open-source Quantum ESPRESSO suite
     for quantum simulation of materials; please cite
         "P. Giannozzi et al., J. Phys.:Condens. Matter 21 395502 (2009);
         "P. Giannozzi et al., J. Phys.:Condens. Matter 29 465901 (2017);
         "P. Giannozzi et al., J. Chem. Phys. 152 154105 (2020);
          URL http://www.quantum-espresso.org", 
     in publications or presentations arising from this work. More details at
     http://www.quantum-espresso.org/quote

     Parallel version (MPI & OpenMP), running on     128 processor cores
     Number of MPI processes:               128
     Threads/MPI process:                     1

     MPI processes distributed on     1 nodes
     476343 MiB available memory on the printing compute node when the environment starts

     Waiting for input...
     Reading input from standard input

     Current dimensions of program PWSCF are:
     Max number of different atomic species (ntypx) = 10
     Max number of k-points (npk) =  40000
     Max angular momentum in pseudopotentials (lmaxx) =  4
     Message from routine setup:
     using ibrav=0 with symmetry is DISCOURAGED, use correct ibrav instead

     K-points division:     npool     =       8
     R & G space division:  proc/nbgrp/npool/nimage =      16
     Subspace diagonalization in iterative solution of the eigenvalue problem:
     one sub-group per band group will be used
     ELPA distributed-memory algorithm (size of sub-group:  4*  4 procs)


     Parallelization info
     --------------------
     sticks:   dense  smooth     PW     G-vecs:    dense   smooth      PW
     Min        1420     473    126               161001    30976    4292
     Max        1422     475    127               161002    30980    4295
     Sum       22725    7589   2025              2576031   495639   68699

     Using Slab Decomposition



     bravais-lattice index     =            0
     lattice parameter (alat)  =      16.2598  a.u.
     unit-cell volume          =    4298.7603 (a.u.)^3
     number of atoms/cell      =           53
     number of atomic types    =            1
     number of electrons       =       848.00
     number of Kohn-Sham states=          509
     kinetic-energy cutoff     =      90.0000  Ry
     charge density cutoff     =    1080.0000  Ry
     scf convergence threshold =      1.0E-08
     mixing beta               =       0.2000
     number of iterations used =            8  plain     mixing
     Exchange-correlation= PBE
                           (   1   4   3   4   0   0   0)

     celldm(1)=  16.259770  celldm(2)=   0.000000  celldm(3)=   0.000000
     celldm(4)=   0.000000  celldm(5)=   0.000000  celldm(6)=   0.000000

     crystal axes: (cart. coord. in units of alat)
               a(1) = (   1.000000   0.000000   0.000000 )  
               a(2) = (   0.000000   1.000000   0.000000 )  
               a(3) = (   0.000000   0.000000   1.000000 )  

     reciprocal axes: (cart. coord. in units 2 pi/alat)
               b(1) = (  1.000000  0.000000  0.000000 )  
               b(2) = (  0.000000  1.000000  0.000000 )  
               b(3) = (  0.000000  0.000000  1.000000 )  


     PseudoPot. # 1 for Fe read from file:
     ./pseudo/Fe.pbe-spn-rrkjus_psl.0.2.1.UPF
     MD5 check sum: f9af58635850a145d9bd408d58feeb93
     Pseudo is Ultrasoft + core correction, Zval = 16.0
     Generated using "atomic" code by A. Dal Corso  v.5.0.2 svn rev. 9415
     Using radial grid of 1191 points,  6 beta functions with: 
                l(1) =   0
                l(2) =   0
                l(3) =   1
                l(4) =   1
                l(5) =   2
                l(6) =   2
     Q(r) pseudized with 0 coefficients 


     atomic species   valence    mass     pseudopotential
     Fe               16.00    55.84500     Fe( 1.00)

     48 Sym. Ops., with inversion, found (42 have fractional translation)


                                    s                        frac. trans.

      isym =  1     identity                                     

 cryst.   s( 1) = (     1          0          0      )
                  (     0          1          0      )
                  (     0          0          1      )

 cart.    s( 1) = (  1.0000000  0.0000000  0.0000000 )
                  (  0.0000000  1.0000000  0.0000000 )
                  (  0.0000000  0.0000000  1.0000000 )


      isym =  2     180 deg rotation - cart. axis [0,0,1]        

 cryst.   s( 2) = (    -1          0          0      )    f =(  0.3333333 )
                  (     0         -1          0      )       (  0.3333333 )
                  (     0          0          1      )       (  0.0000000 )

 cart.    s( 2) = ( -1.0000000  0.0000000  0.0000000 )    f =(  0.3333333 )
                  (  0.0000000 -1.0000000  0.0000000 )       (  0.3333333 )
                  (  0.0000000  0.0000000  1.0000000 )       (  0.0000000 )


      isym =  3     180 deg rotation - cart. axis [0,1,0]        

 cryst.   s( 3) = (    -1          0          0      )    f =(  0.3333333 )
                  (     0          1          0      )       (  0.0000000 )
                  (     0          0         -1      )       (  0.3333333 )

 cart.    s( 3) = ( -1.0000000  0.0000000  0.0000000 )    f =(  0.3333333 )
                  (  0.0000000  1.0000000  0.0000000 )       (  0.0000000 )
                  (  0.0000000  0.0000000 -1.0000000 )       (  0.3333333 )


      isym =  4     180 deg rotation - cart. axis [1,0,0]        

 cryst.   s( 4) = (     1          0          0      )    f =(  0.0000000 )
                  (     0         -1          0      )       (  0.3333333 )
                  (     0          0         -1      )       (  0.3333333 )

 cart.    s( 4) = (  1.0000000  0.0000000  0.0000000 )    f =(  0.0000000 )
                  (  0.0000000 -1.0000000  0.0000000 )       (  0.3333333 )
                  (  0.0000000  0.0000000 -1.0000000 )       (  0.3333333 )


      isym =  5     180 deg rotation - cart. axis [1,1,0]        

 cryst.   s( 5) = (     0          1          0      )    f =(  0.0000000 )
                  (     1          0          0      )       (  0.0000000 )
                  (     0          0         -1      )       (  0.3333333 )

 cart.    s( 5) = (  0.0000000  1.0000000  0.0000000 )    f =(  0.0000000 )
                  (  1.0000000  0.0000000  0.0000000 )       (  0.0000000 )
                  (  0.0000000  0.0000000 -1.0000000 )       (  0.3333333 )


      isym =  6     180 deg rotation - cart. axis [1,-1,0]       

 cryst.   s( 6) = (     0         -1          0      )    f =(  0.3333333 )
                  (    -1          0          0      )       (  0.3333333 )
                  (     0          0         -1      )       (  0.3333333 )

 cart.    s( 6) = (  0.0000000 -1.0000000  0.0000000 )    f =(  0.3333333 )
                  ( -1.0000000  0.0000000  0.0000000 )       (  0.3333333 )
                  (  0.0000000  0.0000000 -1.0000000 )       (  0.3333333 )


      isym =  7      90 deg rotation - cart. axis [0,0,-1]       

 cryst.   s( 7) = (     0         -1          0      )    f =(  0.0000000 )
                  (     1          0          0      )       (  0.3333333 )
                  (     0          0          1      )       (  0.0000000 )

 cart.    s( 7) = (  0.0000000  1.0000000  0.0000000 )    f =(  0.0000000 )
                  ( -1.0000000  0.0000000  0.0000000 )       (  0.3333333 )
                  (  0.0000000  0.0000000  1.0000000 )       (  0.0000000 )


      isym =  8      90 deg rotation - cart. axis [0,0,1]        

 cryst.   s( 8) = (     0          1          0      )    f =(  0.3333333 )
                  (    -1          0          0      )       (  0.0000000 )
                  (     0          0          1      )       (  0.0000000 )

 cart.    s( 8) = (  0.0000000 -1.0000000  0.0000000 )    f =(  0.3333333 )
                  (  1.0000000  0.0000000  0.0000000 )       (  0.0000000 )
                  (  0.0000000  0.0000000  1.0000000 )       (  0.0000000 )


      isym =  9     180 deg rotation - cart. axis [1,0,1]        

 cryst.   s( 9) = (     0          0          1      )    f =(  0.0000000 )
                  (     0         -1          0      )       (  0.3333333 )
                  (     1          0          0      )       (  0.0000000 )

 cart.    s( 9) = (  0.0000000  0.0000000  1.0000000 )    f =(  0.0000000 )
                  (  0.0000000 -1.0000000  0.0000000 )       (  0.3333333 )
                  (  1.0000000  0.0000000  0.0000000 )       (  0.0000000 )


      isym = 10     180 deg rotation - cart. axis [-1,0,1]       

 cryst.   s(10) = (     0          0         -1      )    f =(  0.3333333 )
                  (     0         -1          0      )       (  0.3333333 )
                  (    -1          0          0      )       (  0.3333333 )

 cart.    s(10) = (  0.0000000  0.0000000 -1.0000000 )    f =(  0.3333333 )
                  (  0.0000000 -1.0000000  0.0000000 )       (  0.3333333 )
                  ( -1.0000000  0.0000000  0.0000000 )       (  0.3333333 )


      isym = 11      90 deg rotation - cart. axis [0,1,0]        

 cryst.   s(11) = (     0          0         -1      )    f =(  0.0000000 )
                  (     0          1          0      )       (  0.0000000 )
                  (     1          0          0      )       (  0.3333333 )

 cart.    s(11) = (  0.0000000  0.0000000  1.0000000 )    f =(  0.0000000 )
                  (  0.0000000  1.0000000  0.0000000 )       (  0.0000000 )
                  ( -1.0000000  0.0000000  0.0000000 )       (  0.3333333 )


      isym = 12      90 deg rotation - cart. axis [0,-1,0]       

 cryst.   s(12) = (     0          0          1      )    f =(  0.3333333 )
                  (     0          1          0      )       (  0.0000000 )
                  (    -1          0          0      )       (  0.0000000 )

 cart.    s(12) = (  0.0000000  0.0000000 -1.0000000 )    f =(  0.3333333 )
                  (  0.0000000  1.0000000  0.0000000 )       (  0.0000000 )
                  (  1.0000000  0.0000000  0.0000000 )       (  0.0000000 )


      isym = 13     180 deg rotation - cart. axis [0,1,1]        

 cryst.   s(13) = (    -1          0          0      )    f =(  0.3333333 )
                  (     0          0          1      )       (  0.0000000 )
                  (     0          1          0      )       (  0.0000000 )

 cart.    s(13) = ( -1.0000000  0.0000000  0.0000000 )    f =(  0.3333333 )
                  (  0.0000000  0.0000000  1.0000000 )       (  0.0000000 )
                  (  0.0000000  1.0000000  0.0000000 )       (  0.0000000 )


      isym = 14     180 deg rotation - cart. axis [0,1,-1]       

 cryst.   s(14) = (    -1          0          0      )    f =(  0.3333333 )
                  (     0          0         -1      )       (  0.3333333 )
                  (     0         -1          0      )       (  0.3333333 )

 cart.    s(14) = ( -1.0000000  0.0000000  0.0000000 )    f =(  0.3333333 )
                  (  0.0000000  0.0000000 -1.0000000 )       (  0.3333333 )
                  (  0.0000000 -1.0000000  0.0000000 )       (  0.3333333 )


      isym = 15      90 deg rotation - cart. axis [-1,0,0]       

 cryst.   s(15) = (     1          0          0      )    f =(  0.0000000 )
                  (     0          0         -1      )       (  0.0000000 )
                  (     0          1          0      )       (  0.3333333 )

 cart.    s(15) = (  1.0000000  0.0000000  0.0000000 )    f =(  0.0000000 )
                  (  0.0000000  0.0000000  1.0000000 )       (  0.0000000 )
                  (  0.0000000 -1.0000000  0.0000000 )       (  0.3333333 )


      isym = 16      90 deg rotation - cart. axis [1,0,0]        

 cryst.   s(16) = (     1          0          0      )    f =(  0.0000000 )
                  (     0          0          1      )       (  0.3333333 )
                  (     0         -1          0      )       (  0.0000000 )

 cart.    s(16) = (  1.0000000  0.0000000  0.0000000 )    f =(  0.0000000 )
                  (  0.0000000  0.0000000 -1.0000000 )       (  0.3333333 )
                  (  0.0000000  1.0000000  0.0000000 )       (  0.0000000 )


      isym = 17     120 deg rotation - cart. axis [-1,-1,-1]     

 cryst.   s(17) = (     0          0          1      )
                  (     1          0          0      )
                  (     0          1          0      )

 cart.    s(17) = (  0.0000000  1.0000000  0.0000000 )
                  (  0.0000000  0.0000000  1.0000000 )
                  (  1.0000000  0.0000000  0.0000000 )


      isym = 18     120 deg rotation - cart. axis [-1,1,1]       

 cryst.   s(18) = (     0          0         -1      )    f =(  0.3333333 )
                  (    -1          0          0      )       (  0.0000000 )
                  (     0          1          0      )       (  0.3333333 )

 cart.    s(18) = (  0.0000000 -1.0000000  0.0000000 )    f =(  0.3333333 )
                  (  0.0000000  0.0000000  1.0000000 )       (  0.0000000 )
                  ( -1.0000000  0.0000000  0.0000000 )       (  0.3333333 )


      isym = 19     120 deg rotation - cart. axis [1,1,-1]       

 cryst.   s(19) = (     0          0         -1      )    f =(  0.0000000 )
                  (     1          0          0      )       (  0.3333333 )
                  (     0         -1          0      )       (  0.3333333 )

 cart.    s(19) = (  0.0000000  1.0000000  0.0000000 )    f =(  0.0000000 )
                  (  0.0000000  0.0000000 -1.0000000 )       (  0.3333333 )
                  ( -1.0000000  0.0000000  0.0000000 )       (  0.3333333 )


      isym = 20     120 deg rotation - cart. axis [1,-1,1]       

 cryst.   s(20) = (     0          0          1      )    f =(  0.3333333 )
                  (    -1          0          0      )       (  0.3333333 )
                  (     0         -1          0      )       (  0.0000000 )

 cart.    s(20) = (  0.0000000 -1.0000000  0.0000000 )    f =(  0.3333333 )
                  (  0.0000000  0.0000000 -1.0000000 )       (  0.3333333 )
                  (  1.0000000  0.0000000  0.0000000 )       (  0.0000000 )


      isym = 21     120 deg rotation - cart. axis [1,1,1]        

 cryst.   s(21) = (     0          1          0      )
                  (     0          0          1      )
                  (     1          0          0      )

 cart.    s(21) = (  0.0000000  0.0000000  1.0000000 )
                  (  1.0000000  0.0000000  0.0000000 )
                  (  0.0000000  1.0000000  0.0000000 )


      isym = 22     120 deg rotation - cart. axis [-1,1,-1]      

 cryst.   s(22) = (     0         -1          0      )    f =(  0.0000000 )
                  (     0          0         -1      )       (  0.3333333 )
                  (     1          0          0      )       (  0.3333333 )

 cart.    s(22) = (  0.0000000  0.0000000  1.0000000 )    f =(  0.0000000 )
                  ( -1.0000000  0.0000000  0.0000000 )       (  0.3333333 )
                  (  0.0000000 -1.0000000  0.0000000 )       (  0.3333333 )


      isym = 23     120 deg rotation - cart. axis [1,-1,-1]      

 cryst.   s(23) = (     0         -1          0      )    f =(  0.3333333 )
                  (     0          0          1      )       (  0.3333333 )
                  (    -1          0          0      )       (  0.0000000 )

 cart.    s(23) = (  0.0000000  0.0000000 -1.0000000 )    f =(  0.3333333 )
                  ( -1.0000000  0.0000000  0.0000000 )       (  0.3333333 )
                  (  0.0000000  1.0000000  0.0000000 )       (  0.0000000 )


      isym = 24     120 deg rotation - cart. axis [-1,-1,1]      

 cryst.   s(24) = (     0          1          0      )    f =(  0.3333333 )
                  (     0          0         -1      )       (  0.0000000 )
                  (    -1          0          0      )       (  0.3333333 )

 cart.    s(24) = (  0.0000000  0.0000000 -1.0000000 )    f =(  0.3333333 )
                  (  1.0000000  0.0000000  0.0000000 )       (  0.0000000 )
                  (  0.0000000 -1.0000000  0.0000000 )       (  0.3333333 )


      isym = 25     inversion                                    

 cryst.   s(25) = (    -1          0          0      )    f =(  0.3333333 )
                  (     0         -1          0      )       (  0.3333333 )
                  (     0          0         -1      )       (  0.3333333 )

 cart.    s(25) = ( -1.0000000  0.0000000  0.0000000 )    f =(  0.3333333 )
                  (  0.0000000 -1.0000000  0.0000000 )       (  0.3333333 )
                  (  0.0000000  0.0000000 -1.0000000 )       (  0.3333333 )


      isym = 26     inv. 180 deg rotation - cart. axis [0,0,1]   

 cryst.   s(26) = (     1          0          0      )    f =(  0.0000000 )
                  (     0          1          0      )       (  0.0000000 )
                  (     0          0         -1      )       (  0.3333333 )

 cart.    s(26) = (  1.0000000  0.0000000  0.0000000 )    f =(  0.0000000 )
                  (  0.0000000  1.0000000  0.0000000 )       (  0.0000000 )
                  (  0.0000000  0.0000000 -1.0000000 )       (  0.3333333 )


      isym = 27     inv. 180 deg rotation - cart. axis [0,1,0]   

 cryst.   s(27) = (     1          0          0      )    f =(  0.0000000 )
                  (     0         -1          0      )       (  0.3333333 )
                  (     0          0          1      )       (  0.0000000 )

 cart.    s(27) = (  1.0000000  0.0000000  0.0000000 )    f =(  0.0000000 )
                  (  0.0000000 -1.0000000  0.0000000 )       (  0.3333333 )
                  (  0.0000000  0.0000000  1.0000000 )       (  0.0000000 )


      isym = 28     inv. 180 deg rotation - cart. axis [1,0,0]   

 cryst.   s(28) = (    -1          0          0      )    f =(  0.3333333 )
                  (     0          1          0      )       (  0.0000000 )
                  (     0          0          1      )       (  0.0000000 )

 cart.    s(28) = ( -1.0000000  0.0000000  0.0000000 )    f =(  0.3333333 )
                  (  0.0000000  1.0000000  0.0000000 )       (  0.0000000 )
                  (  0.0000000  0.0000000  1.0000000 )       (  0.0000000 )


      isym = 29     inv. 180 deg rotation - cart. axis [1,1,0]   

 cryst.   s(29) = (     0         -1          0      )    f =(  0.3333333 )
                  (    -1          0          0      )       (  0.3333333 )
                  (     0          0          1      )       (  0.0000000 )

 cart.    s(29) = (  0.0000000 -1.0000000  0.0000000 )    f =(  0.3333333 )
                  ( -1.0000000  0.0000000  0.0000000 )       (  0.3333333 )
                  (  0.0000000  0.0000000  1.0000000 )       (  0.0000000 )


      isym = 30     inv. 180 deg rotation - cart. axis [1,-1,0]  

 cryst.   s(30) = (     0          1          0      )
                  (     1          0          0      )
                  (     0          0          1      )

 cart.    s(30) = (  0.0000000  1.0000000  0.0000000 )
                  (  1.0000000  0.0000000  0.0000000 )
                  (  0.0000000  0.0000000  1.0000000 )


      isym = 31     inv.  90 deg rotation - cart. axis [0,0,-1]  

 cryst.   s(31) = (     0          1          0      )    f =(  0.3333333 )
                  (    -1          0          0      )       (  0.0000000 )
                  (     0          0         -1      )       (  0.3333333 )

 cart.    s(31) = (  0.0000000 -1.0000000  0.0000000 )    f =(  0.3333333 )
                  (  1.0000000  0.0000000  0.0000000 )       (  0.0000000 )
                  (  0.0000000  0.0000000 -1.0000000 )       (  0.3333333 )


      isym = 32     inv.  90 deg rotation - cart. axis [0,0,1]   

 cryst.   s(32) = (     0         -1          0      )    f =(  0.0000000 )
                  (     1          0          0      )       (  0.3333333 )
                  (     0          0         -1      )       (  0.3333333 )

 cart.    s(32) = (  0.0000000  1.0000000  0.0000000 )    f =(  0.0000000 )
                  ( -1.0000000  0.0000000  0.0000000 )       (  0.3333333 )
                  (  0.0000000  0.0000000 -1.0000000 )       (  0.3333333 )


      isym = 33     inv. 180 deg rotation - cart. axis [1,0,1]   

 cryst.   s(33) = (     0          0         -1      )    f =(  0.3333333 )
                  (     0          1          0      )       (  0.0000000 )
                  (    -1          0          0      )       (  0.3333333 )

 cart.    s(33) = (  0.0000000  0.0000000 -1.0000000 )    f =(  0.3333333 )
                  (  0.0000000  1.0000000  0.0000000 )       (  0.0000000 )
                  ( -1.0000000  0.0000000  0.0000000 )       (  0.3333333 )


      isym = 34     inv. 180 deg rotation - cart. axis [-1,0,1]  

 cryst.   s(34) = (     0          0          1      )
                  (     0          1          0      )
                  (     1          0          0      )

 cart.    s(34) = (  0.0000000  0.0000000  1.0000000 )
                  (  0.0000000  1.0000000  0.0000000 )
                  (  1.0000000  0.0000000  0.0000000 )


      isym = 35     inv.  90 deg rotation - cart. axis [0,1,0]   

 cryst.   s(35) = (     0          0          1      )    f =(  0.3333333 )
                  (     0         -1          0      )       (  0.3333333 )
                  (    -1          0          0      )       (  0.0000000 )

 cart.    s(35) = (  0.0000000  0.0000000 -1.0000000 )    f =(  0.3333333 )
                  (  0.0000000 -1.0000000  0.0000000 )       (  0.3333333 )
                  (  1.0000000  0.0000000  0.0000000 )       (  0.0000000 )


      isym = 36     inv.  90 deg rotation - cart. axis [0,-1,0]  

 cryst.   s(36) = (     0          0         -1      )    f =(  0.0000000 )
                  (     0         -1          0      )       (  0.3333333 )
                  (     1          0          0      )       (  0.3333333 )

 cart.    s(36) = (  0.0000000  0.0000000  1.0000000 )    f =(  0.0000000 )
                  (  0.0000000 -1.0000000  0.0000000 )       (  0.3333333 )
                  ( -1.0000000  0.0000000  0.0000000 )       (  0.3333333 )


      isym = 37     inv. 180 deg rotation - cart. axis [0,1,1]   

 cryst.   s(37) = (     1          0          0      )    f =(  0.0000000 )
                  (     0          0         -1      )       (  0.3333333 )
                  (     0         -1          0      )       (  0.3333333 )

 cart.    s(37) = (  1.0000000  0.0000000  0.0000000 )    f =(  0.0000000 )
                  (  0.0000000  0.0000000 -1.0000000 )       (  0.3333333 )
                  (  0.0000000 -1.0000000  0.0000000 )       (  0.3333333 )


      isym = 38     inv. 180 deg rotation - cart. axis [0,1,-1]  

 cryst.   s(38) = (     1          0          0      )
                  (     0          0          1      )
                  (     0          1          0      )

 cart.    s(38) = (  1.0000000  0.0000000  0.0000000 )
                  (  0.0000000  0.0000000  1.0000000 )
                  (  0.0000000  1.0000000  0.0000000 )


      isym = 39     inv.  90 deg rotation - cart. axis [-1,0,0]  

 cryst.   s(39) = (    -1          0          0      )    f =(  0.3333333 )
                  (     0          0          1      )       (  0.3333333 )
                  (     0         -1          0      )       (  0.0000000 )

 cart.    s(39) = ( -1.0000000  0.0000000  0.0000000 )    f =(  0.3333333 )
                  (  0.0000000  0.0000000 -1.0000000 )       (  0.3333333 )
                  (  0.0000000  1.0000000  0.0000000 )       (  0.0000000 )


      isym = 40     inv.  90 deg rotation - cart. axis [1,0,0]   

 cryst.   s(40) = (    -1          0          0      )    f =(  0.3333333 )
                  (     0          0         -1      )       (  0.0000000 )
                  (     0          1          0      )       (  0.3333333 )

 cart.    s(40) = ( -1.0000000  0.0000000  0.0000000 )    f =(  0.3333333 )
                  (  0.0000000  0.0000000  1.0000000 )       (  0.0000000 )
                  (  0.0000000 -1.0000000  0.0000000 )       (  0.3333333 )


      isym = 41     inv. 120 deg rotation - cart. axis [-1,-1,-1]

 cryst.   s(41) = (     0          0         -1      )    f =(  0.3333333 )
                  (    -1          0          0      )       (  0.3333333 )
                  (     0         -1          0      )       (  0.3333333 )

 cart.    s(41) = (  0.0000000 -1.0000000  0.0000000 )    f =(  0.3333333 )
                  (  0.0000000  0.0000000 -1.0000000 )       (  0.3333333 )
                  ( -1.0000000  0.0000000  0.0000000 )       (  0.3333333 )


      isym = 42     inv. 120 deg rotation - cart. axis [-1,1,1]  

 cryst.   s(42) = (     0          0          1      )    f =(  0.0000000 )
                  (     1          0          0      )       (  0.3333333 )
                  (     0         -1          0      )       (  0.0000000 )

 cart.    s(42) = (  0.0000000  1.0000000  0.0000000 )    f =(  0.0000000 )
                  (  0.0000000  0.0000000 -1.0000000 )       (  0.3333333 )
                  (  1.0000000  0.0000000  0.0000000 )       (  0.0000000 )


      isym = 43     inv. 120 deg rotation - cart. axis [1,1,-1]  

 cryst.   s(43) = (     0          0          1      )    f =(  0.3333333 )
                  (    -1          0          0      )       (  0.0000000 )
                  (     0          1          0      )       (  0.0000000 )

 cart.    s(43) = (  0.0000000 -1.0000000  0.0000000 )    f =(  0.3333333 )
                  (  0.0000000  0.0000000  1.0000000 )       (  0.0000000 )
                  (  1.0000000  0.0000000  0.0000000 )       (  0.0000000 )


      isym = 44     inv. 120 deg rotation - cart. axis [1,-1,1]  

 cryst.   s(44) = (     0          0         -1      )    f =(  0.0000000 )
                  (     1          0          0      )       (  0.0000000 )
                  (     0          1          0      )       (  0.3333333 )

 cart.    s(44) = (  0.0000000  1.0000000  0.0000000 )    f =(  0.0000000 )
                  (  0.0000000  0.0000000  1.0000000 )       (  0.0000000 )
                  ( -1.0000000  0.0000000  0.0000000 )       (  0.3333333 )


      isym = 45     inv. 120 deg rotation - cart. axis [1,1,1]   

 cryst.   s(45) = (     0         -1          0      )    f =(  0.3333333 )
                  (     0          0         -1      )       (  0.3333333 )
                  (    -1          0          0      )       (  0.3333333 )

 cart.    s(45) = (  0.0000000  0.0000000 -1.0000000 )    f =(  0.3333333 )
                  ( -1.0000000  0.0000000  0.0000000 )       (  0.3333333 )
                  (  0.0000000 -1.0000000  0.0000000 )       (  0.3333333 )


      isym = 46     inv. 120 deg rotation - cart. axis [-1,1,-1] 

 cryst.   s(46) = (     0          1          0      )    f =(  0.3333333 )
                  (     0          0          1      )       (  0.0000000 )
                  (    -1          0          0      )       (  0.0000000 )

 cart.    s(46) = (  0.0000000  0.0000000 -1.0000000 )    f =(  0.3333333 )
                  (  1.0000000  0.0000000  0.0000000 )       (  0.0000000 )
                  (  0.0000000  1.0000000  0.0000000 )       (  0.0000000 )


      isym = 47     inv. 120 deg rotation - cart. axis [1,-1,-1] 

 cryst.   s(47) = (     0          1          0      )    f =(  0.0000000 )
                  (     0          0         -1      )       (  0.0000000 )
                  (     1          0          0      )       (  0.3333333 )

 cart.    s(47) = (  0.0000000  0.0000000  1.0000000 )    f =(  0.0000000 )
                  (  1.0000000  0.0000000  0.0000000 )       (  0.0000000 )
                  (  0.0000000 -1.0000000  0.0000000 )       (  0.3333333 )


      isym = 48     inv. 120 deg rotation - cart. axis [-1,-1,1] 

 cryst.   s(48) = (     0         -1          0      )    f =(  0.0000000 )
                  (     0          0          1      )       (  0.3333333 )
                  (     1          0          0      )       (  0.0000000 )

 cart.    s(48) = (  0.0000000  0.0000000  1.0000000 )    f =(  0.0000000 )
                  ( -1.0000000  0.0000000  0.0000000 )       (  0.3333333 )
                  (  0.0000000  1.0000000  0.0000000 )       (  0.0000000 )


   Cartesian axes

     site n.     atom                  positions (alat units)
         1        Fe     tau(   1) = (   0.0293862   0.0293862   0.0293862  )
         2        Fe     tau(   2) = (   0.1963820   0.1963820   0.1963820  )
         3        Fe     tau(   3) = (   0.0230014   0.0230014   0.3333333  )
         4        Fe     tau(   4) = (   0.1963820   0.1963820   0.4702847  )
         5        Fe     tau(   5) = (   0.0293862   0.0293862   0.6372804  )
         6        Fe     tau(   6) = (   0.1508598   0.1508598   0.8333333  )
         7        Fe     tau(   7) = (   0.0230014   0.3333333   0.0230014  )
         8        Fe     tau(   8) = (   0.1963820   0.4702847   0.1963820  )
         9        Fe     tau(   9) = (  -0.0129240   0.3333333   0.3333333  )
        10        Fe     tau(  10) = (   0.1963820   0.4702847   0.4702847  )
        11        Fe     tau(  11) = (   0.0230014   0.3333333   0.6436652  )
        12        Fe     tau(  12) = (   0.1508598   0.5158069   0.8333333  )
        13        Fe     tau(  13) = (   0.0293862   0.6372804   0.0293862  )
        14        Fe     tau(  14) = (   0.1508598   0.8333333   0.1508598  )
        15        Fe     tau(  15) = (   0.0230014   0.6436652   0.3333333  )
        16        Fe     tau(  16) = (   0.1508598   0.8333333   0.5158069  )
        17        Fe     tau(  17) = (   0.0293862   0.6372804   0.6372804  )
        18        Fe     tau(  18) = (   0.1577221   0.8333333   0.8333333  )
        19        Fe     tau(  19) = (   0.3333333   0.0230014   0.0230014  )
        20        Fe     tau(  20) = (   0.4702847   0.1963820   0.1963820  )
        21        Fe     tau(  21) = (   0.3333333  -0.0129240   0.3333333  )
        22        Fe     tau(  22) = (   0.4702847   0.1963820   0.4702847  )
        23        Fe     tau(  23) = (   0.3333333   0.0230014   0.6436652  )
        24        Fe     tau(  24) = (   0.5158069   0.1508598   0.8333333  )
        25        Fe     tau(  25) = (   0.3333333   0.3333333  -0.0129240  )
        26        Fe     tau(  26) = (   0.4702847   0.4702847   0.1963820  )
        27        Fe     tau(  27) = (   0.4702847   0.4702847   0.4702847  )
        28        Fe     tau(  28) = (   0.3333333   0.3333333   0.6795907  )
        29        Fe     tau(  29) = (   0.5158069   0.5158069   0.8333333  )
        30        Fe     tau(  30) = (   0.3333333   0.6436652   0.0230014  )
        31        Fe     tau(  31) = (   0.5158069   0.8333333   0.1508598  )
        32        Fe     tau(  32) = (   0.3333333   0.6795907   0.3333333  )
        33        Fe     tau(  33) = (   0.5158069   0.8333333   0.5158069  )
        34        Fe     tau(  34) = (   0.3333333   0.6436652   0.6436652  )
        35        Fe     tau(  35) = (   0.5089446   0.8333333   0.8333333  )
        36        Fe     tau(  36) = (   0.6372804   0.0293862   0.0293862  )
        37        Fe     tau(  37) = (   0.8333333   0.1508598   0.1508598  )
        38        Fe     tau(  38) = (   0.6436652   0.0230014   0.3333333  )
        39        Fe     tau(  39) = (   0.8333333   0.1508598   0.5158069  )
        40        Fe     tau(  40) = (   0.6372804   0.0293862   0.6372804  )
        41        Fe     tau(  41) = (   0.8333333   0.1577221   0.8333333  )
        42        Fe     tau(  42) = (   0.6436652   0.3333333   0.0230014  )
        43        Fe     tau(  43) = (   0.8333333   0.5158069   0.1508598  )
        44        Fe     tau(  44) = (   0.6795907   0.3333333   0.3333333  )
        45        Fe     tau(  45) = (   0.8333333   0.5158069   0.5158069  )
        46        Fe     tau(  46) = (   0.6436652   0.3333333   0.6436652  )
        47        Fe     tau(  47) = (   0.8333333   0.5089446   0.8333333  )
        48        Fe     tau(  48) = (   0.6372804   0.6372804   0.0293862  )
        49        Fe     tau(  49) = (   0.8333333   0.8333333   0.1577221  )
        50        Fe     tau(  50) = (   0.6436652   0.6436652   0.3333333  )
        51        Fe     tau(  51) = (   0.8333333   0.8333333   0.5089446  )
        52        Fe     tau(  52) = (   0.6372804   0.6372804   0.6372804  )
        53        Fe     tau(  53) = (   0.8333333   0.8333333   0.8333333  )

   Crystallographic axes

     site n.     atom                  positions (cryst. coord.)
         1        Fe     tau(   1) = (  0.0293862  0.0293862  0.0293862  )
         2        Fe     tau(   2) = (  0.1963820  0.1963820  0.1963820  )
         3        Fe     tau(   3) = (  0.0230014  0.0230014  0.3333333  )
         4        Fe     tau(   4) = (  0.1963820  0.1963820  0.4702847  )
         5        Fe     tau(   5) = (  0.0293862  0.0293862  0.6372804  )
         6        Fe     tau(   6) = (  0.1508598  0.1508598  0.8333333  )
         7        Fe     tau(   7) = (  0.0230014  0.3333333  0.0230014  )
         8        Fe     tau(   8) = (  0.1963820  0.4702847  0.1963820  )
         9        Fe     tau(   9) = ( -0.0129240  0.3333333  0.3333333  )
        10        Fe     tau(  10) = (  0.1963820  0.4702847  0.4702847  )
        11        Fe     tau(  11) = (  0.0230014  0.3333333  0.6436652  )
        12        Fe     tau(  12) = (  0.1508598  0.5158069  0.8333333  )
        13        Fe     tau(  13) = (  0.0293862  0.6372804  0.0293862  )
        14        Fe     tau(  14) = (  0.1508598  0.8333333  0.1508598  )
        15        Fe     tau(  15) = (  0.0230014  0.6436652  0.3333333  )
        16        Fe     tau(  16) = (  0.1508598  0.8333333  0.5158069  )
        17        Fe     tau(  17) = (  0.0293862  0.6372804  0.6372804  )
        18        Fe     tau(  18) = (  0.1577221  0.8333333  0.8333333  )
        19        Fe     tau(  19) = (  0.3333333  0.0230014  0.0230014  )
        20        Fe     tau(  20) = (  0.4702847  0.1963820  0.1963820  )
        21        Fe     tau(  21) = (  0.3333333 -0.0129240  0.3333333  )
        22        Fe     tau(  22) = (  0.4702847  0.1963820  0.4702847  )
        23        Fe     tau(  23) = (  0.3333333  0.0230014  0.6436652  )
        24        Fe     tau(  24) = (  0.5158069  0.1508598  0.8333333  )
        25        Fe     tau(  25) = (  0.3333333  0.3333333 -0.0129240  )
        26        Fe     tau(  26) = (  0.4702847  0.4702847  0.1963820  )
        27        Fe     tau(  27) = (  0.4702847  0.4702847  0.4702847  )
        28        Fe     tau(  28) = (  0.3333333  0.3333333  0.6795907  )
        29        Fe     tau(  29) = (  0.5158069  0.5158069  0.8333333  )
        30        Fe     tau(  30) = (  0.3333333  0.6436652  0.0230014  )
        31        Fe     tau(  31) = (  0.5158069  0.8333333  0.1508598  )
        32        Fe     tau(  32) = (  0.3333333  0.6795907  0.3333333  )
        33        Fe     tau(  33) = (  0.5158069  0.8333333  0.5158069  )
        34        Fe     tau(  34) = (  0.3333333  0.6436652  0.6436652  )
        35        Fe     tau(  35) = (  0.5089446  0.8333333  0.8333333  )
        36        Fe     tau(  36) = (  0.6372804  0.0293862  0.0293862  )
        37        Fe     tau(  37) = (  0.8333333  0.1508598  0.1508598  )
        38        Fe     tau(  38) = (  0.6436652  0.0230014  0.3333333  )
        39        Fe     tau(  39) = (  0.8333333  0.1508598  0.5158069  )
        40        Fe     tau(  40) = (  0.6372804  0.0293862  0.6372804  )
        41        Fe     tau(  41) = (  0.8333333  0.1577221  0.8333333  )
        42        Fe     tau(  42) = (  0.6436652  0.3333333  0.0230014  )
        43        Fe     tau(  43) = (  0.8333333  0.5158069  0.1508598  )
        44        Fe     tau(  44) = (  0.6795907  0.3333333  0.3333333  )
        45        Fe     tau(  45) = (  0.8333333  0.5158069  0.5158069  )
        46        Fe     tau(  46) = (  0.6436652  0.3333333  0.6436652  )
        47        Fe     tau(  47) = (  0.8333333  0.5089446  0.8333333  )
        48        Fe     tau(  48) = (  0.6372804  0.6372804  0.0293862  )
        49        Fe     tau(  49) = (  0.8333333  0.8333333  0.1577221  )
        50        Fe     tau(  50) = (  0.6436652  0.6436652  0.3333333  )
        51        Fe     tau(  51) = (  0.8333333  0.8333333  0.5089446  )
        52        Fe     tau(  52) = (  0.6372804  0.6372804  0.6372804  )
        53        Fe     tau(  53) = (  0.8333333  0.8333333  0.8333333  )

     number of k points=    56  Marzari-Vanderbilt smearing, width (Ry)=  0.0100
                       cart. coord. in units 2pi/alat
        k(    1) = (   0.0000000   0.0000000   0.0000000), wk =   0.0020000
        k(    2) = (   0.0000000   0.0000000   0.1000000), wk =   0.0120000
        k(    3) = (   0.0000000   0.0000000   0.2000000), wk =   0.0120000
        k(    4) = (   0.0000000   0.0000000   0.3000000), wk =   0.0120000
        k(    5) = (   0.0000000   0.0000000   0.4000000), wk =   0.0120000
        k(    6) = (   0.0000000   0.0000000  -0.5000000), wk =   0.0060000
        k(    7) = (   0.0000000   0.1000000   0.1000000), wk =   0.0240000
        k(    8) = (   0.0000000   0.1000000   0.2000000), wk =   0.0480000
        k(    9) = (   0.0000000   0.1000000   0.3000000), wk =   0.0480000
        k(   10) = (   0.0000000   0.1000000   0.4000000), wk =   0.0480000
        k(   11) = (   0.0000000   0.1000000  -0.5000000), wk =   0.0240000
        k(   12) = (   0.0000000   0.2000000   0.2000000), wk =   0.0240000
        k(   13) = (   0.0000000   0.2000000   0.3000000), wk =   0.0480000
        k(   14) = (   0.0000000   0.2000000   0.4000000), wk =   0.0480000
        k(   15) = (   0.0000000   0.2000000  -0.5000000), wk =   0.0240000
        k(   16) = (   0.0000000   0.3000000   0.3000000), wk =   0.0240000
        k(   17) = (   0.0000000   0.3000000   0.4000000), wk =   0.0480000
        k(   18) = (   0.0000000   0.3000000  -0.5000000), wk =   0.0240000
        k(   19) = (   0.0000000   0.4000000   0.4000000), wk =   0.0240000
        k(   20) = (   0.0000000   0.4000000  -0.5000000), wk =   0.0240000
        k(   21) = (   0.0000000  -0.5000000  -0.5000000), wk =   0.0060000
        k(   22) = (   0.1000000   0.1000000   0.1000000), wk =   0.0160000
        k(   23) = (   0.1000000   0.1000000   0.2000000), wk =   0.0480000
        k(   24) = (   0.1000000   0.1000000   0.3000000), wk =   0.0480000
        k(   25) = (   0.1000000   0.1000000   0.4000000), wk =   0.0480000
        k(   26) = (   0.1000000   0.1000000  -0.5000000), wk =   0.0240000
        k(   27) = (   0.1000000   0.2000000   0.2000000), wk =   0.0480000
        k(   28) = (   0.1000000   0.2000000   0.3000000), wk =   0.0960000
        k(   29) = (   0.1000000   0.2000000   0.4000000), wk =   0.0960000
        k(   30) = (   0.1000000   0.2000000  -0.5000000), wk =   0.0480000
        k(   31) = (   0.1000000   0.3000000   0.3000000), wk =   0.0480000
        k(   32) = (   0.1000000   0.3000000   0.4000000), wk =   0.0960000
        k(   33) = (   0.1000000   0.3000000  -0.5000000), wk =   0.0480000
        k(   34) = (   0.1000000   0.4000000   0.4000000), wk =   0.0480000
        k(   35) = (   0.1000000   0.4000000  -0.5000000), wk =   0.0480000
        k(   36) = (   0.1000000  -0.5000000  -0.5000000), wk =   0.0120000
        k(   37) = (   0.2000000   0.2000000   0.2000000), wk =   0.0160000
        k(   38) = (   0.2000000   0.2000000   0.3000000), wk =   0.0480000
        k(   39) = (   0.2000000   0.2000000   0.4000000), wk =   0.0480000
        k(   40) = (   0.2000000   0.2000000  -0.5000000), wk =   0.0240000
        k(   41) = (   0.2000000   0.3000000   0.3000000), wk =   0.0480000
        k(   42) = (   0.2000000   0.3000000   0.4000000), wk =   0.0960000
        k(   43) = (   0.2000000   0.3000000  -0.5000000), wk =   0.0480000
        k(   44) = (   0.2000000   0.4000000   0.4000000), wk =   0.0480000
        k(   45) = (   0.2000000   0.4000000  -0.5000000), wk =   0.0480000
        k(   46) = (   0.2000000  -0.5000000  -0.5000000), wk =   0.0120000
        k(   47) = (   0.3000000   0.3000000   0.3000000), wk =   0.0160000
        k(   48) = (   0.3000000   0.3000000   0.4000000), wk =   0.0480000
        k(   49) = (   0.3000000   0.3000000  -0.5000000), wk =   0.0240000
        k(   50) = (   0.3000000   0.4000000   0.4000000), wk =   0.0480000
        k(   51) = (   0.3000000   0.4000000  -0.5000000), wk =   0.0480000
        k(   52) = (   0.3000000  -0.5000000  -0.5000000), wk =   0.0120000
        k(   53) = (   0.4000000   0.4000000   0.4000000), wk =   0.0160000
        k(   54) = (   0.4000000   0.4000000  -0.5000000), wk =   0.0240000
        k(   55) = (   0.4000000  -0.5000000  -0.5000000), wk =   0.0120000
        k(   56) = (  -0.5000000  -0.5000000  -0.5000000), wk =   0.0020000

                       cryst. coord.
        k(    1) = (   0.0000000   0.0000000   0.0000000), wk =   0.0020000
        k(    2) = (   0.0000000   0.0000000   0.1000000), wk =   0.0120000
        k(    3) = (   0.0000000   0.0000000   0.2000000), wk =   0.0120000
        k(    4) = (   0.0000000   0.0000000   0.3000000), wk =   0.0120000
        k(    5) = (   0.0000000   0.0000000   0.4000000), wk =   0.0120000
        k(    6) = (   0.0000000   0.0000000  -0.5000000), wk =   0.0060000
        k(    7) = (   0.0000000   0.1000000   0.1000000), wk =   0.0240000
        k(    8) = (   0.0000000   0.1000000   0.2000000), wk =   0.0480000
        k(    9) = (   0.0000000   0.1000000   0.3000000), wk =   0.0480000
        k(   10) = (   0.0000000   0.1000000   0.4000000), wk =   0.0480000
        k(   11) = (   0.0000000   0.1000000  -0.5000000), wk =   0.0240000
        k(   12) = (   0.0000000   0.2000000   0.2000000), wk =   0.0240000
        k(   13) = (   0.0000000   0.2000000   0.3000000), wk =   0.0480000
        k(   14) = (   0.0000000   0.2000000   0.4000000), wk =   0.0480000
        k(   15) = (   0.0000000   0.2000000  -0.5000000), wk =   0.0240000
        k(   16) = (   0.0000000   0.3000000   0.3000000), wk =   0.0240000
        k(   17) = (   0.0000000   0.3000000   0.4000000), wk =   0.0480000
        k(   18) = (   0.0000000   0.3000000  -0.5000000), wk =   0.0240000
        k(   19) = (   0.0000000   0.4000000   0.4000000), wk =   0.0240000
        k(   20) = (   0.0000000   0.4000000  -0.5000000), wk =   0.0240000
        k(   21) = (   0.0000000  -0.5000000  -0.5000000), wk =   0.0060000
        k(   22) = (   0.1000000   0.1000000   0.1000000), wk =   0.0160000
        k(   23) = (   0.1000000   0.1000000   0.2000000), wk =   0.0480000
        k(   24) = (   0.1000000   0.1000000   0.3000000), wk =   0.0480000
        k(   25) = (   0.1000000   0.1000000   0.4000000), wk =   0.0480000
        k(   26) = (   0.1000000   0.1000000  -0.5000000), wk =   0.0240000
        k(   27) = (   0.1000000   0.2000000   0.2000000), wk =   0.0480000
        k(   28) = (   0.1000000   0.2000000   0.3000000), wk =   0.0960000
        k(   29) = (   0.1000000   0.2000000   0.4000000), wk =   0.0960000
        k(   30) = (   0.1000000   0.2000000  -0.5000000), wk =   0.0480000
        k(   31) = (   0.1000000   0.3000000   0.3000000), wk =   0.0480000
        k(   32) = (   0.1000000   0.3000000   0.4000000), wk =   0.0960000
        k(   33) = (   0.1000000   0.3000000  -0.5000000), wk =   0.0480000
        k(   34) = (   0.1000000   0.4000000   0.4000000), wk =   0.0480000
        k(   35) = (   0.1000000   0.4000000  -0.5000000), wk =   0.0480000
        k(   36) = (   0.1000000  -0.5000000  -0.5000000), wk =   0.0120000
        k(   37) = (   0.2000000   0.2000000   0.2000000), wk =   0.0160000
        k(   38) = (   0.2000000   0.2000000   0.3000000), wk =   0.0480000
        k(   39) = (   0.2000000   0.2000000   0.4000000), wk =   0.0480000
        k(   40) = (   0.2000000   0.2000000  -0.5000000), wk =   0.0240000
        k(   41) = (   0.2000000   0.3000000   0.3000000), wk =   0.0480000
        k(   42) = (   0.2000000   0.3000000   0.4000000), wk =   0.0960000
        k(   43) = (   0.2000000   0.3000000  -0.5000000), wk =   0.0480000
        k(   44) = (   0.2000000   0.4000000   0.4000000), wk =   0.0480000
        k(   45) = (   0.2000000   0.4000000  -0.5000000), wk =   0.0480000
        k(   46) = (   0.2000000  -0.5000000  -0.5000000), wk =   0.0120000
        k(   47) = (   0.3000000   0.3000000   0.3000000), wk =   0.0160000
        k(   48) = (   0.3000000   0.3000000   0.4000000), wk =   0.0480000
        k(   49) = (   0.3000000   0.3000000  -0.5000000), wk =   0.0240000
        k(   50) = (   0.3000000   0.4000000   0.4000000), wk =   0.0480000
        k(   51) = (   0.3000000   0.4000000  -0.5000000), wk =   0.0480000
        k(   52) = (   0.3000000  -0.5000000  -0.5000000), wk =   0.0120000
        k(   53) = (   0.4000000   0.4000000   0.4000000), wk =   0.0160000
        k(   54) = (   0.4000000   0.4000000  -0.5000000), wk =   0.0240000
        k(   55) = (   0.4000000  -0.5000000  -0.5000000), wk =   0.0120000
        k(   56) = (  -0.5000000  -0.5000000  -0.5000000), wk =   0.0020000

     Dense  grid:  2576031 G-vectors     FFT dimensions: ( 180, 180, 180)

     Smooth grid:   495639 G-vectors     FFT dimensions: ( 108, 108, 108)

     Dynamical RAM for                 wfc:      30.08 MB

     Dynamical RAM for     wfc (w. buffer):     240.64 MB

     Dynamical RAM for           str. fact:       2.46 MB

     Dynamical RAM for           local pot:       0.00 MB

     Dynamical RAM for          nlocal pot:      56.38 MB

     Dynamical RAM for                qrad:       2.64 MB

     Dynamical RAM for          rho,v,vnew:      16.27 MB

     Dynamical RAM for               rhoin:       5.42 MB

     Dynamical RAM for            rho*nmix:      39.31 MB

     Dynamical RAM for           G-vectors:       9.45 MB

     Dynamical RAM for          h,s,v(r/c):       2.95 MB

     Dynamical RAM for          <psi|beta>:       7.41 MB

     Dynamical RAM for                 psi:      60.16 MB

     Dynamical RAM for                hpsi:      60.16 MB

     Dynamical RAM for                spsi:      60.16 MB

     Dynamical RAM for      wfcinit/wfcrot:      92.31 MB

     Dynamical RAM for           addusdens:      75.54 MB

     Dynamical RAM for          addusforce:     106.77 MB

     Dynamical RAM for         addusstress:      62.80 MB

     Estimated static dynamical RAM per process >     353.00 MB

     Estimated max dynamical RAM per process >     583.15 MB

     Estimated total dynamical RAM >      68.60 GB

     Check: negative core charge=   -0.000010

     Initial potential from superposition of free atoms

     starting charge     847.9768, renormalised to     848.0000
     Starting wfcs are  689 randomized atomic wfcs

     total cpu time spent up to now is       50.1 secs

     per-process dynamical memory:   569.5 Mb

     Self-consistent Calculation

     iteration #  1     ecut=    90.00 Ry     beta= 0.20
     Davidson diagonalization with overlap

---- Real-time Memory Report at c_bands before calling an iterative solver
           747 MiB given to the printing process from OS
           556 MiB allocation reported by mallinfo(arena+hblkhd)
        426508 MiB available memory on the node where the printing process lives
------------------
     ethr =  1.00E-02,  avg # of iterations =  2.0

     total cpu time spent up to now is      165.0 secs

     total energy              =  -13472.95026172 Ry
     estimated scf accuracy    <      20.01211968 Ry

     iteration #  2     ecut=    90.00 Ry     beta= 0.20
     Davidson diagonalization with overlap

---- Real-time Memory Report at c_bands before calling an iterative solver
           884 MiB given to the printing process from OS
           564 MiB allocation reported by mallinfo(arena+hblkhd)
        425305 MiB available memory on the node where the printing process lives
------------------
     ethr =  2.36E-03,  avg # of iterations =  4.1

     total cpu time spent up to now is      292.7 secs

     total energy              =  -13468.72913813 Ry
     estimated scf accuracy    <     620.84804891 Ry

     iteration #  3     ecut=    90.00 Ry     beta= 0.20
     Davidson diagonalization with overlap

---- Real-time Memory Report at c_bands before calling an iterative solver
           897 MiB given to the printing process from OS
           566 MiB allocation reported by mallinfo(arena+hblkhd)
        425325 MiB available memory on the node where the printing process lives
------------------
     ethr =  2.36E-03,  avg # of iterations =  3.3

     total cpu time spent up to now is      409.0 secs

     total energy              =  -13478.09603552 Ry
     estimated scf accuracy    <     125.91876381 Ry

     iteration #  4     ecut=    90.00 Ry     beta= 0.20
     Davidson diagonalization with overlap

---- Real-time Memory Report at c_bands before calling an iterative solver
           897 MiB given to the printing process from OS
           566 MiB allocation reported by mallinfo(arena+hblkhd)
        425292 MiB available memory on the node where the printing process lives
------------------
     ethr =  2.36E-03,  avg # of iterations =  1.1

     total cpu time spent up to now is      505.2 secs

     total energy              =  -13480.09177660 Ry
     estimated scf accuracy    <      15.48427067 Ry

     iteration #  5     ecut=    90.00 Ry     beta= 0.20
     Davidson diagonalization with overlap

---- Real-time Memory Report at c_bands before calling an iterative solver
           897 MiB given to the printing process from OS
           567 MiB allocation reported by mallinfo(arena+hblkhd)
        425256 MiB available memory on the node where the printing process lives
------------------
     ethr =  1.83E-03,  avg # of iterations =  1.0

     total cpu time spent up to now is      600.6 secs

     total energy              =  -13480.20113240 Ry
     estimated scf accuracy    <      17.26300192 Ry

     iteration #  6     ecut=    90.00 Ry     beta= 0.20
     Davidson diagonalization with overlap

---- Real-time Memory Report at c_bands before calling an iterative solver
           897 MiB given to the printing process from OS
           569 MiB allocation reported by mallinfo(arena+hblkhd)
        425236 MiB available memory on the node where the printing process lives
------------------
     ethr =  1.83E-03,  avg # of iterations =  1.0

     total cpu time spent up to now is      699.7 secs

     total energy              =  -13478.98001806 Ry
     estimated scf accuracy    <      11.82973042 Ry

     iteration #  7     ecut=    90.00 Ry     beta= 0.20
     Davidson diagonalization with overlap

---- Real-time Memory Report at c_bands before calling an iterative solver
           899 MiB given to the printing process from OS
           570 MiB allocation reported by mallinfo(arena+hblkhd)
        425199 MiB available memory on the node where the printing process lives
------------------
     ethr =  1.40E-03,  avg # of iterations =  2.0

     total cpu time spent up to now is      803.3 secs

     total energy              =  -13481.19485975 Ry
     estimated scf accuracy    <      32.42795558 Ry

     iteration #  8     ecut=    90.00 Ry     beta= 0.20
     Davidson diagonalization with overlap

---- Real-time Memory Report at c_bands before calling an iterative solver
           901 MiB given to the printing process from OS
           571 MiB allocation reported by mallinfo(arena+hblkhd)
        425174 MiB available memory on the node where the printing process lives
------------------
     ethr =  1.40E-03,  avg # of iterations =  1.2

     total cpu time spent up to now is      901.8 secs

     total energy              =  -13479.49924596 Ry
     estimated scf accuracy    <      61.00921617 Ry

     iteration #  9     ecut=    90.00 Ry     beta= 0.20
     Davidson diagonalization with overlap

---- Real-time Memory Report at c_bands before calling an iterative solver
           901 MiB given to the printing process from OS
           572 MiB allocation reported by mallinfo(arena+hblkhd)
        425149 MiB available memory on the node where the printing process lives
------------------
     ethr =  1.40E-03,  avg # of iterations =  1.1

     total cpu time spent up to now is     1003.3 secs

     total energy              =  -13479.78984905 Ry
     estimated scf accuracy    <       8.59514331 Ry

     iteration # 10     ecut=    90.00 Ry     beta= 0.20
     Davidson diagonalization with overlap

---- Real-time Memory Report at c_bands before calling an iterative solver
           903 MiB given to the printing process from OS
           573 MiB allocation reported by mallinfo(arena+hblkhd)
        425126 MiB available memory on the node where the printing process lives
------------------
     ethr =  1.01E-03,  avg # of iterations =  1.2

     total cpu time spent up to now is     1102.3 secs

     total energy              =  -13479.87275836 Ry
     estimated scf accuracy    <       2.18727621 Ry

     iteration # 11     ecut=    90.00 Ry     beta= 0.20
     Davidson diagonalization with overlap

---- Real-time Memory Report at c_bands before calling an iterative solver
           903 MiB given to the printing process from OS
           573 MiB allocation reported by mallinfo(arena+hblkhd)
        425133 MiB available memory on the node where the printing process lives
------------------
     ethr =  2.58E-04,  avg # of iterations =  1.1

     total cpu time spent up to now is     1197.6 secs

     total energy              =  -13479.87642579 Ry
     estimated scf accuracy    <       3.58980904 Ry

     iteration # 12     ecut=    90.00 Ry     beta= 0.20
     Davidson diagonalization with overlap

---- Real-time Memory Report at c_bands before calling an iterative solver
           903 MiB given to the printing process from OS
           573 MiB allocation reported by mallinfo(arena+hblkhd)
        425138 MiB available memory on the node where the printing process lives
------------------
     ethr =  2.58E-04,  avg # of iterations =  1.0

     total cpu time spent up to now is     1290.5 secs

     total energy              =  -13479.91673628 Ry
     estimated scf accuracy    <       0.15003499 Ry

     iteration # 13     ecut=    90.00 Ry     beta= 0.20
     Davidson diagonalization with overlap

---- Real-time Memory Report at c_bands before calling an iterative solver
           903 MiB given to the printing process from OS
           573 MiB allocation reported by mallinfo(arena+hblkhd)
        425133 MiB available memory on the node where the printing process lives
------------------
     ethr =  1.77E-05,  avg # of iterations =  3.6

     total cpu time spent up to now is     1399.6 secs

     total energy              =  -13479.87212182 Ry
     estimated scf accuracy    <       2.08597135 Ry

     iteration # 14     ecut=    90.00 Ry     beta= 0.20
     Davidson diagonalization with overlap

---- Real-time Memory Report at c_bands before calling an iterative solver
           903 MiB given to the printing process from OS
           573 MiB allocation reported by mallinfo(arena+hblkhd)
        425110 MiB available memory on the node where the printing process lives
------------------
     ethr =  1.77E-05,  avg # of iterations =  2.2

     total cpu time spent up to now is     1505.6 secs

     total energy              =  -13479.92238943 Ry
     estimated scf accuracy    <       0.82443484 Ry

     iteration # 15     ecut=    90.00 Ry     beta= 0.20
     Davidson diagonalization with overlap

---- Real-time Memory Report at c_bands before calling an iterative solver
           903 MiB given to the printing process from OS
           573 MiB allocation reported by mallinfo(arena+hblkhd)
        425104 MiB available memory on the node where the printing process lives
------------------
     ethr =  1.77E-05,  avg # of iterations =  1.1

     total cpu time spent up to now is     1600.8 secs

     total energy              =  -13479.92985001 Ry
     estimated scf accuracy    <       0.06434900 Ry

     iteration # 16     ecut=    90.00 Ry     beta= 0.20
     Davidson diagonalization with overlap

---- Real-time Memory Report at c_bands before calling an iterative solver
           903 MiB given to the printing process from OS
           573 MiB allocation reported by mallinfo(arena+hblkhd)
        425098 MiB available memory on the node where the printing process lives
------------------
     ethr =  7.59E-06,  avg # of iterations =  2.3

     total cpu time spent up to now is     1706.2 secs

     total energy              =  -13479.92802897 Ry
     estimated scf accuracy    <       0.21008357 Ry

     iteration # 17     ecut=    90.00 Ry     beta= 0.20
     Davidson diagonalization with overlap

---- Real-time Memory Report at c_bands before calling an iterative solver
           903 MiB given to the printing process from OS
           573 MiB allocation reported by mallinfo(arena+hblkhd)
        425096 MiB available memory on the node where the printing process lives
------------------
     ethr =  7.59E-06,  avg # of iterations =  1.1

     total cpu time spent up to now is     1800.9 secs

     total energy              =  -13479.92955968 Ry
     estimated scf accuracy    <       0.01727990 Ry

     iteration # 18     ecut=    90.00 Ry     beta= 0.20
     Davidson diagonalization with overlap

---- Real-time Memory Report at c_bands before calling an iterative solver
           903 MiB given to the printing process from OS
           573 MiB allocation reported by mallinfo(arena+hblkhd)
        425097 MiB available memory on the node where the printing process lives
------------------
     ethr =  2.04E-06,  avg # of iterations =  4.3

     total cpu time spent up to now is     1912.4 secs

     total energy              =  -13479.93002006 Ry
     estimated scf accuracy    <       0.00843029 Ry

     iteration # 19     ecut=    90.00 Ry     beta= 0.20
     Davidson diagonalization with overlap

---- Real-time Memory Report at c_bands before calling an iterative solver
           903 MiB given to the printing process from OS
           573 MiB allocation reported by mallinfo(arena+hblkhd)
        425080 MiB available memory on the node where the printing process lives
------------------
     ethr =  9.94E-07,  avg # of iterations =  1.0

     total cpu time spent up to now is     2008.3 secs

     total energy              =  -13479.93012923 Ry
     estimated scf accuracy    <       0.00274499 Ry

     iteration # 20     ecut=    90.00 Ry     beta= 0.20
     Davidson diagonalization with overlap

---- Real-time Memory Report at c_bands before calling an iterative solver
           903 MiB given to the printing process from OS
           573 MiB allocation reported by mallinfo(arena+hblkhd)
        425076 MiB available memory on the node where the printing process lives
------------------
     ethr =  3.24E-07,  avg # of iterations =  2.2

     total cpu time spent up to now is     2115.3 secs

     total energy              =  -13479.93014411 Ry
     estimated scf accuracy    <       0.00447568 Ry

     iteration # 21     ecut=    90.00 Ry     beta= 0.20
     Davidson diagonalization with overlap

---- Real-time Memory Report at c_bands before calling an iterative solver
           903 MiB given to the printing process from OS
           573 MiB allocation reported by mallinfo(arena+hblkhd)
        425078 MiB available memory on the node where the printing process lives
------------------
     ethr =  3.24E-07,  avg # of iterations =  1.0

     total cpu time spent up to now is     2208.3 secs

     total energy              =  -13479.93024063 Ry
     estimated scf accuracy    <       0.00247765 Ry

     iteration # 22     ecut=    90.00 Ry     beta= 0.20
     Davidson diagonalization with overlap

---- Real-time Memory Report at c_bands before calling an iterative solver
           904 MiB given to the printing process from OS
           573 MiB allocation reported by mallinfo(arena+hblkhd)
        425062 MiB available memory on the node where the printing process lives
------------------
     ethr =  2.92E-07,  avg # of iterations =  1.0

     total cpu time spent up to now is     2303.3 secs

     total energy              =  -13479.93027340 Ry
     estimated scf accuracy    <       0.00001253 Ry

     iteration # 23     ecut=    90.00 Ry     beta= 0.20
     Davidson diagonalization with overlap

---- Real-time Memory Report at c_bands before calling an iterative solver
           904 MiB given to the printing process from OS
           573 MiB allocation reported by mallinfo(arena+hblkhd)
        425061 MiB available memory on the node where the printing process lives
------------------
     ethr =  1.48E-09,  avg # of iterations =  6.4

     total cpu time spent up to now is     2474.0 secs

     total energy              =  -13479.93027797 Ry
     estimated scf accuracy    <       0.00006683 Ry

     iteration # 24     ecut=    90.00 Ry     beta= 0.20
     Davidson diagonalization with overlap

---- Real-time Memory Report at c_bands before calling an iterative solver
           907 MiB given to the printing process from OS
           573 MiB allocation reported by mallinfo(arena+hblkhd)
        425019 MiB available memory on the node where the printing process lives
------------------
     ethr =  1.48E-09,  avg # of iterations =  2.0

     total cpu time spent up to now is     2582.1 secs

     total energy              =  -13479.93027950 Ry
     estimated scf accuracy    <       0.00002853 Ry

     iteration # 25     ecut=    90.00 Ry     beta= 0.20
     Davidson diagonalization with overlap

---- Real-time Memory Report at c_bands before calling an iterative solver
           907 MiB given to the printing process from OS
           573 MiB allocation reported by mallinfo(arena+hblkhd)
        425002 MiB available memory on the node where the printing process lives
------------------
     ethr =  1.48E-09,  avg # of iterations =  1.0

     total cpu time spent up to now is     2675.0 secs

     total energy              =  -13479.93028016 Ry
     estimated scf accuracy    <       0.00000439 Ry

     iteration # 26     ecut=    90.00 Ry     beta= 0.20
     Davidson diagonalization with overlap

---- Real-time Memory Report at c_bands before calling an iterative solver
           907 MiB given to the printing process from OS
           573 MiB allocation reported by mallinfo(arena+hblkhd)
        425004 MiB available memory on the node where the printing process lives
------------------
     ethr =  5.17E-10,  avg # of iterations =  2.0

     total cpu time spent up to now is     2780.5 secs

     total energy              =  -13479.93028027 Ry
     estimated scf accuracy    <       0.00000039 Ry

     iteration # 27     ecut=    90.00 Ry     beta= 0.20
     Davidson diagonalization with overlap

---- Real-time Memory Report at c_bands before calling an iterative solver
           907 MiB given to the printing process from OS
           573 MiB allocation reported by mallinfo(arena+hblkhd)
        425005 MiB available memory on the node where the printing process lives
------------------
     ethr =  4.60E-11,  avg # of iterations =  5.0

     total cpu time spent up to now is     2895.4 secs

     total energy              =  -13479.93028028 Ry
     estimated scf accuracy    <       0.00000069 Ry

     iteration # 28     ecut=    90.00 Ry     beta= 0.20
     Davidson diagonalization with overlap

---- Real-time Memory Report at c_bands before calling an iterative solver
           907 MiB given to the printing process from OS
           573 MiB allocation reported by mallinfo(arena+hblkhd)
        424991 MiB available memory on the node where the printing process lives
------------------
     ethr =  4.60E-11,  avg # of iterations =  1.6

     total cpu time spent up to now is     3000.1 secs

     total energy              =  -13479.93028028 Ry
     estimated scf accuracy    <       0.00000108 Ry

     iteration # 29     ecut=    90.00 Ry     beta= 0.20
     Davidson diagonalization with overlap

---- Real-time Memory Report at c_bands before calling an iterative solver
           907 MiB given to the printing process from OS
           573 MiB allocation reported by mallinfo(arena+hblkhd)
        424990 MiB available memory on the node where the printing process lives
------------------
     ethr =  4.60E-11,  avg # of iterations =  1.0

     total cpu time spent up to now is     3093.4 secs

     total energy              =  -13479.93028032 Ry
     estimated scf accuracy    <       0.00000043 Ry

     iteration # 30     ecut=    90.00 Ry     beta= 0.20
     Davidson diagonalization with overlap

---- Real-time Memory Report at c_bands before calling an iterative solver
           907 MiB given to the printing process from OS
           573 MiB allocation reported by mallinfo(arena+hblkhd)
        424976 MiB available memory on the node where the printing process lives
------------------
     ethr =  4.60E-11,  avg # of iterations =  1.0

     total cpu time spent up to now is     3186.7 secs

     total energy              =  -13479.93028034 Ry
     estimated scf accuracy    <       0.00000005 Ry

     iteration # 31     ecut=    90.00 Ry     beta= 0.20
     Davidson diagonalization with overlap

---- Real-time Memory Report at c_bands before calling an iterative solver
           907 MiB given to the printing process from OS
           573 MiB allocation reported by mallinfo(arena+hblkhd)
        424962 MiB available memory on the node where the printing process lives
------------------
     ethr =  5.74E-12,  avg # of iterations =  2.3

     total cpu time spent up to now is     3300.3 secs

     total energy              =  -13479.93028034 Ry
     estimated scf accuracy    <       0.00000004 Ry

     iteration # 32     ecut=    90.00 Ry     beta= 0.20
     Davidson diagonalization with overlap

---- Real-time Memory Report at c_bands before calling an iterative solver
           907 MiB given to the printing process from OS
           573 MiB allocation reported by mallinfo(arena+hblkhd)
        424964 MiB available memory on the node where the printing process lives
------------------
     ethr =  5.17E-12,  avg # of iterations =  1.4

     total cpu time spent up to now is     3402.7 secs

     total energy              =  -13479.93028034 Ry
     estimated scf accuracy    <       0.00000027 Ry

     iteration # 33     ecut=    90.00 Ry     beta= 0.20
     Davidson diagonalization with overlap

---- Real-time Memory Report at c_bands before calling an iterative solver
           907 MiB given to the printing process from OS
           573 MiB allocation reported by mallinfo(arena+hblkhd)
        424957 MiB available memory on the node where the printing process lives
------------------
     ethr =  5.17E-12,  avg # of iterations =  1.0

     total cpu time spent up to now is     3496.4 secs

     total energy              =  -13479.93028035 Ry
     estimated scf accuracy    <       0.00000003 Ry

     iteration # 34     ecut=    90.00 Ry     beta= 0.20
     Davidson diagonalization with overlap

---- Real-time Memory Report at c_bands before calling an iterative solver
           907 MiB given to the printing process from OS
           573 MiB allocation reported by mallinfo(arena+hblkhd)
        424952 MiB available memory on the node where the printing process lives
------------------
     ethr =  2.97E-12,  avg # of iterations =  1.0

     total cpu time spent up to now is     3589.9 secs

     End of self-consistent calculation

          k = 0.0000 0.0000 0.0000 ( 62093 PWs)   bands (ev):

   -70.1907 -70.1803 -70.1803 -70.1803 -70.1711 -70.1711 -70.1711 -70.1616
   -70.1600 -70.1295 -70.1295 -70.1295 -70.0990 -70.0990 -70.0990 -70.0697
   -70.0320 -70.0320 -70.0300 -70.0300 -70.0300 -70.0191 -70.0191 -70.0191
   -70.0123 -70.0123 -70.0123 -70.0096 -69.9073 -69.9073 -69.9030 -69.9017
   -69.9017 -69.9017 -69.8952 -69.8952 -69.8952 -69.8950 -69.8950 -69.8949
   -69.8949 -69.8949 -69.8915 -69.8915 -69.8915 -69.8893 -69.7312 -69.7312
   -69.7310 -69.7302 -69.7302 -69.7302 -69.6489 -36.4489 -36.4489 -36.4489
   -36.4356 -36.4356 -36.4343 -36.4343 -36.4268 -36.4268 -36.4268 -36.4130
   -36.4130 -36.4130 -36.4100 -36.4100 -36.4100 -36.4020 -36.4020 -36.3863
   -36.3863 -36.3863 -36.3252 -36.3252 -36.3252 -36.3204 -36.3204 -36.3204
   -36.2890 -36.2701 -36.2231 -36.2231 -36.2231 -36.2061 -36.2061 -36.2061
   -36.1647 -36.1647 -36.1647 -36.1603 -36.1603 -36.1603 -36.1548 -36.1308
   -36.1175 -36.1175 -36.1175 -36.1174 -36.1170 -36.1170 -36.1008 -36.1008
   -36.1008 -36.0959 -36.0857 -36.0857 -36.0857 -36.0796 -36.0796 -36.0796
   -36.0778 -36.0778 -36.0778 -36.0655 -36.0655 -36.0456 -36.0456 -36.0456
   -36.0424 -36.0424 -36.0142 -36.0142 -36.0142 -36.0119 -36.0119 -36.0119
   -36.0046 -36.0046 -36.0046 -36.0023 -35.9949 -35.9884 -35.9884 -35.9884
   -35.9750 -35.9750 -35.9664 -35.9664 -35.9664 -35.9627 -35.9627 -35.9612
   -35.9612 -35.9512 -35.9512 -35.9512 -35.9504 -35.9504 -35.9504 -35.9463
   -35.9463 -35.9463 -35.9333 -35.9212 -35.9212 -35.9212 -35.9196 -35.9196
   -35.9196 -35.9184 -35.9184 -35.9184 -35.9137 -35.9137 -35.9137 -35.9093
   -35.9077 -35.9077 -35.8951 -35.8951 -35.8951 -35.8871 -35.8871 -35.8871
   -35.8815 -35.8815 -35.8815 -35.8767 -35.8767 -35.8767 -35.8740 -35.8740
   -35.8685 -35.8685 -35.8685 -35.8543 -35.8543 -35.8543 -35.8345 -35.8205
   -35.8205 -35.8205 -35.8181 -35.8181 -35.8181 -35.8166 -35.8166 -35.8166
   -35.8125 -35.8125 -35.8125 -35.7223 -35.7223 -35.7223 -35.6996 -35.6996
   -35.6992 -35.6694 -35.6694 -35.6694   8.8602  10.7863  10.7863  10.7863
    11.0929  11.0929  11.0933  12.1286  12.1286  12.1286  12.1770  12.1770
    12.1770  12.2874  12.2874  12.3114  12.3114  12.3114  12.6993  13.1095
    13.1095  13.1170  13.1170  13.1170  13.2439  13.2439  13.2439  13.2703
    13.2703  13.3002  13.4363  13.4363  13.4363  13.4422  13.4422  13.4422
    13.4812  13.4812  13.4812  13.5590  13.5710  13.5710  13.5710  13.6027
    13.6702  13.6702  13.6702  13.8715  13.8715  13.8748  13.8748  13.8873
    13.9161  13.9161  13.9161  13.9614  13.9786  13.9786  13.9786  14.2103
    14.2103  14.2103  14.2177  14.2177  14.2479  14.2479  14.2479  14.3326
    14.3326  14.3326  14.3374  14.3374  14.3374  14.3728  14.3728  14.3728
    14.4009  14.4009  14.4545  14.4555  14.5002  14.5002  14.5002  14.5214
    14.5214  14.5214  14.6073  14.6073  14.6426  14.6870  14.6870  14.6870
    14.8156  14.8156  14.8156  14.9048  14.9048  14.9048  14.9220  14.9220
    14.9458  14.9458  14.9458  15.0629  15.0629  15.0734  15.0734  15.0734
    15.1085  15.1085  15.1085  15.1386  15.1386  15.1386  15.1926  15.1926
    15.1926  15.2706  15.2881  15.2881  15.3944  15.3944  15.5609  15.5609
    15.5609  15.5643  15.5643  15.5643  15.5705  15.5705  15.5705  15.5868
    15.5868  15.5868  15.6127  15.6975  15.6975  15.7126  15.7624  15.7624
    15.7624  15.8351  15.8351  15.8351  15.8500  15.8500  15.8500  15.8776
    15.8776  15.8776  15.9174  15.9174  15.9174  15.9529  15.9754  15.9754
    15.9859  15.9859  15.9859  16.0214  16.0214  16.0214  16.0663  16.0770
    16.0770  16.0770  16.1158  16.1261  16.1261  16.1261  16.2050  16.2050
    16.3287  16.3287  16.3287  16.3466  16.3466  16.3466  16.4335  16.4335
    16.4610  16.4610  16.4610  16.4620  16.4620  16.4620  16.4893  16.4893
    16.4893  16.4931  16.4977  16.4977  16.5665  16.5665  16.6630  16.6630
    16.6630  16.7101  16.7101  16.7101  16.7548  16.7548  16.7548  16.8396
    16.8396  16.8396  16.9853  16.9853  16.9853  17.0361  17.0361  17.0361
    17.0442  17.0442  17.0442  17.0596  17.0596  17.2238  17.2238  17.2238
    17.2666  17.2673  17.2673  17.2673  17.2858  17.2858  17.2858  17.3666
    17.3666  17.3826  17.3826  17.3826  17.4119  17.4119  17.4119  17.4535
    17.4535  17.4587  17.4737  17.4737  17.4737  17.4974  17.4974  17.4974
    17.5093  17.5093  17.5093  17.5124  17.5174  17.5174  17.5327  17.5327
    17.5759  17.5759  17.5759  17.6299  17.6299  17.6356  17.7170  17.7170
    17.7170  17.7227  17.7227  17.7227  17.7272  17.7272  17.7272  17.8271
    17.8271  17.8271  17.8975  17.8975  17.8975  17.9003  17.9003  17.9351
    17.9351  17.9351  17.9956  17.9956  17.9956  18.0252  18.0370  18.0370
    19.0402  19.4014  19.4014  19.4014  19.4121  19.4121  19.4121  19.6348
    19.7026  19.7026  19.7026  19.8620  19.8620

     occupation numbers 
     1.0000   1.0000   1.0000   1.0000   1.0000   1.0000   1.0000   1.0000
     1.0000   1.0000   1.0000   1.0000   1.0000   1.0000   1.0000   1.0000
     1.0000   1.0000   1.0000   1.0000   1.0000   1.0000   1.0000   1.0000
     1.0000   1.0000   1.0000   1.0000   1.0000   1.0000   1.0000   1.0000
     1.0000   1.0000   1.0000   1.0000   1.0000   1.0000   1.0000   1.0000
     1.0000   1.0000   1.0000   1.0000   1.0000   1.0000   1.0000   1.0000
     1.0000   1.0000   1.0000   1.0000   1.0000   1.0000   1.0000   1.0000
     1.0000   1.0000   1.0000   1.0000   1.0000   1.0000   1.0000   1.0000
     1.0000   1.0000   1.0000   1.0000   1.0000   1.0000   1.0000   1.0000
     1.0000   1.0000   1.0000   1.0000   1.0000   1.0000   1.0000   1.0000
     1.0000   1.0000   1.0000   1.0000   1.0000   1.0000   1.0000   1.0000
     1.0000   1.0000   1.0000   1.0000   1.0000   1.0000   1.0000   1.0000
     1.0000   1.0000   1.0000   1.0000   1.0000   1.0000   1.0000   1.0000
     1.0000   1.0000   1.0000   1.0000   1.0000   1.0000   1.0000   1.0000
     1.0000   1.0000   1.0000   1.0000   1.0000   1.0000   1.0000   1.0000
     1.0000   1.0000   1.0000   1.0000   1.0000   1.0000   1.0000   1.0000
     1.0000   1.0000   1.0000   1.0000   1.0000   1.0000   1.0000   1.0000
     1.0000   1.0000   1.0000   1.0000   1.0000   1.0000   1.0000   1.0000
     1.0000   1.0000   1.0000   1.0000   1.0000   1.0000   1.0000   1.0000
     1.0000   1.0000   1.0000   1.0000   1.0000   1.0000   1.0000   1.0000
     1.0000   1.0000   1.0000   1.0000   1.0000   1.0000   1.0000   1.0000
     1.0000   1.0000   1.0000   1.0000   1.0000   1.0000   1.0000   1.0000
     1.0000   1.0000   1.0000   1.0000   1.0000   1.0000   1.0000   1.0000
     1.0000   1.0000   1.0000   1.0000   1.0000   1.0000   1.0000   1.0000
     1.0000   1.0000   1.0000   1.0000   1.0000   1.0000   1.0000   1.0000
     1.0000   1.0000   1.0000   1.0000   1.0000   1.0000   1.0000   1.0000
     1.0000   1.0000   1.0000   1.0000   1.0000   1.0000   1.0000   1.0000
     1.0000   1.0000   1.0000   1.0000   1.0000   1.0000   1.0000   1.0000
     1.0000   1.0000   1.0000   1.0000   1.0000   1.0000   1.0000   1.0000
     1.0000   1.0000   1.0000   1.0000   1.0000   1.0000   1.0000   1.0000
     1.0000   1.0000   1.0000   1.0000   1.0000   1.0000   1.0000   1.0000
     1.0000   1.0000   1.0000   1.0000   1.0000   1.0000   1.0000   1.0000
     1.0000   1.0000   1.0000   1.0000   1.0000   1.0000   1.0000   1.0000
     1.0000   1.0000   1.0000   1.0000   1.0000   1.0000   1.0000   1.0000
     1.0000   1.0000   1.0000   1.0000   1.0000   1.0000   1.0000   1.0000
     1.0000   1.0000   1.0000   1.0000   1.0000   1.0000   1.0000   1.0000
     1.0000   1.0000   1.0000   1.0000   1.0000   1.0000   1.0000   1.0000
     1.0000   1.0000   1.0000   1.0000   1.0000   1.0000   1.0000   1.0000
     1.0000   1.0000   1.0000   1.0000   1.0000   1.0000   1.0000   1.0000
     1.0000   1.0000   1.0000   1.0000   1.0000   1.0000   1.0000   1.0000
     1.0000   1.0000   1.0000   1.0000   1.0000   1.0000   1.0000   1.0000
     1.0000   1.0000   1.0000   1.0000   1.0000   1.0000   1.0000   1.0000
     1.0000   1.0000   1.0000   1.0000   1.0000   1.0000   1.0000   1.0000
     1.0000   1.0000   1.0000   1.0000   1.0000   1.0000   1.0000   1.0000
     1.0000   1.0000   1.0000   1.0000   1.0000   1.0000   1.0000   1.0000
     1.0000   1.0000   1.0000   1.0000   1.0000   1.0000   1.0000   1.0000
     1.0000   1.0000   1.0000   1.0000   1.0000   1.0000   1.0000   1.0000
     1.0000   1.0000   1.0000   1.0000   1.0000   1.0000   1.0000   1.0000
     1.0000   1.0000   1.0000   1.0000   1.0000   1.0000   1.0000   1.0000
     1.0000   1.0000   1.0000   1.0000   1.0000   1.0000   1.0000   1.0000
     1.0000   1.0000   1.0000   1.0000   1.0001   1.0001   1.0020   1.0020
     1.0020   1.0079   1.0079   1.0079   1.0221   1.0221   1.0221   1.0743
     1.0743   1.0743   0.8076   0.8076   0.8076   0.5348   0.5348   0.5348
     0.4905   0.4905   0.4905   0.4096   0.4096   0.0144   0.0144   0.0144
     0.0038   0.0037   0.0037   0.0037   0.0020   0.0020   0.0020   0.0001
     0.0001   0.0000   0.0000   0.0000   0.0000   0.0000   0.0000   0.0000
     0.0000   0.0000   0.0000   0.0000   0.0000   0.0000   0.0000   0.0000
     0.0000   0.0000   0.0000   0.0000   0.0000   0.0000   0.0000   0.0000
     0.0000   0.0000   0.0000   0.0000   0.0000   0.0000   0.0000   0.0000
     0.0000   0.0000   0.0000   0.0000   0.0000   0.0000   0.0000   0.0000
     0.0000   0.0000   0.0000   0.0000   0.0000   0.0000   0.0000   0.0000
     0.0000   0.0000   0.0000   0.0000   0.0000   0.0000   0.0000   0.0000
     0.0000   0.0000   0.0000   0.0000   0.0000   0.0000   0.0000   0.0000
     0.0000   0.0000   0.0000   0.0000   0.0000

          k = 0.0000 0.0000 0.1000 ( 62033 PWs)   bands (ev):

   -70.1906 -70.1806 -70.1803 -70.1803 -70.1712 -70.1712 -70.1710 -70.1616
   -70.1599 -70.1295 -70.1295 -70.1295 -70.0990 -70.0990 -70.0990 -70.0697
   -70.0320 -70.0319 -70.0300 -70.0299 -70.0299 -70.0192 -70.0192 -70.0191
   -70.0129 -70.0122 -70.0122 -70.0091 -69.9073 -69.9072 -69.9032 -69.9017
   -69.9017 -69.9016 -69.8953 -69.8953 -69.8953 -69.8950 -69.8949 -69.8949
   -69.8948 -69.8948 -69.8915 -69.8915 -69.8915 -69.8893 -69.7312 -69.7311
   -69.7310 -69.7302 -69.7302 -69.7302 -69.6489 -36.4486 -36.4485 -36.4485
   -36.4360 -36.4353 -36.4343 -36.4340 -36.4272 -36.4272 -36.4264 -36.4137
   -36.4133 -36.4133 -36.4099 -36.4099 -36.4098 -36.4027 -36.4022 -36.3863
   -36.3863 -36.3863 -36.3253 -36.3251 -36.3251 -36.3204 -36.3204 -36.3204
   -36.2889 -36.2685 -36.2238 -36.2223 -36.2223 -36.2062 -36.2062 -36.2056
   -36.1701 -36.1701 -36.1645 -36.1616 -36.1548 -36.1548 -36.1537 -36.1303
   -36.1207 -36.1203 -36.1203 -36.1181 -36.1168 -36.1140 -36.1006 -36.1000
   -36.1000 -36.0967 -36.0859 -36.0859 -36.0859 -36.0814 -36.0814 -36.0805
   -36.0777 -36.0732 -36.0732 -36.0663 -36.0631 -36.0454 -36.0454 -36.0453
   -36.0436 -36.0424 -36.0153 -36.0153 -36.0150 -36.0130 -36.0130 -36.0126
   -36.0047 -36.0044 -36.0031 -36.0031 -35.9933 -35.9886 -35.9886 -35.9860
   -35.9752 -35.9751 -35.9680 -35.9680 -35.9678 -35.9658 -35.9634 -35.9614
   -35.9569 -35.9550 -35.9550 -35.9508 -35.9503 -35.9472 -35.9472 -35.9444
   -35.9444 -35.9428 -35.9335 -35.9226 -35.9215 -35.9215 -35.9193 -35.9193
   -35.9193 -35.9191 -35.9182 -35.9182 -35.9139 -35.9138 -35.9138 -35.9092
   -35.9075 -35.9065 -35.8962 -35.8962 -35.8955 -35.8877 -35.8877 -35.8870
   -35.8827 -35.8814 -35.8809 -35.8809 -35.8766 -35.8766 -35.8738 -35.8684
   -35.8682 -35.8678 -35.8678 -35.8549 -35.8545 -35.8545 -35.8349 -35.8205
   -35.8205 -35.8205 -35.8182 -35.8182 -35.8182 -35.8165 -35.8163 -35.8163
   -35.8129 -35.8126 -35.8126 -35.7229 -35.7223 -35.7223 -35.6996 -35.6993
   -35.6984 -35.6698 -35.6694 -35.6694   8.8820  10.5538  10.8038  10.8038
    11.1078  11.1092  11.3407  11.9821  11.9821  12.1003  12.1466  12.1598
    12.2442  12.2442  12.3358  12.3930  12.3930  12.4237  12.7244  13.0917
[...]
     atom   39 type  1   force =    -0.00000000    1.93342081   -1.93342081
     atom   40 type  1   force =   -13.19304151   13.19304151  -13.19304151
     atom   41 type  1   force =     0.00000000    1.91351146   -0.00000000
     atom   42 type  1   force =   -15.52918547    0.00000000   15.52918547
     atom   43 type  1   force =    -0.00000000   -1.93342081    1.93342081
     atom   44 type  1   force =   -16.54138407   -0.00000000    0.00000000
     atom   45 type  1   force =    -0.00000000   -1.93342081   -1.93342081
     atom   46 type  1   force =   -15.52918547    0.00000000  -15.52918547
     atom   47 type  1   force =    -0.00000000   -1.91351146   -0.00000000
     atom   48 type  1   force =   -13.19304151  -13.19304151   13.19304151
     atom   49 type  1   force =     0.00000000    0.00000000    1.91351146
     atom   50 type  1   force =   -15.52918547  -15.52918547    0.00000000
     atom   51 type  1   force =    -0.00000000    0.00000000   -1.91351146
     atom   52 type  1   force =   -13.19304151  -13.19304151  -13.19304151
     atom   53 type  1   force =    -0.00000000   -0.00000000   -0.00000000
     The core correction contribution to forces
     atom    1 type  1   force =    -0.00249885   -0.00249885   -0.00249885
     atom    2 type  1   force =    -0.00256497   -0.00256497   -0.00256497
     atom    3 type  1   force =    -0.00330696   -0.00330696    0.00000000
     atom    4 type  1   force =    -0.00256497   -0.00256497    0.00256497
     atom    5 type  1   force =    -0.00249885   -0.00249885    0.00249885
     atom    6 type  1   force =     0.00411020    0.00411020    0.00000000
     atom    7 type  1   force =    -0.00330696   -0.00000000   -0.00330696
     atom    8 type  1   force =    -0.00256497    0.00256497   -0.00256497
     atom    9 type  1   force =    -0.00301023   -0.00000000    0.00000000
     atom   10 type  1   force =    -0.00256497    0.00256497    0.00256497
     atom   11 type  1   force =    -0.00330696   -0.00000000    0.00330696
     atom   12 type  1   force =     0.00411020   -0.00411020    0.00000000
     atom   13 type  1   force =    -0.00249885    0.00249885   -0.00249885
     atom   14 type  1   force =     0.00411020    0.00000000    0.00411020
     atom   15 type  1   force =    -0.00330696    0.00330696    0.00000000
     atom   16 type  1   force =     0.00411020    0.00000000   -0.00411020
     atom   17 type  1   force =    -0.00249885    0.00249885    0.00249885
     atom   18 type  1   force =     0.00447362    0.00000000    0.00000000
     atom   19 type  1   force =    -0.00000000   -0.00330696   -0.00330696
     atom   20 type  1   force =     0.00256497   -0.00256497   -0.00256497
     atom   21 type  1   force =    -0.00000000   -0.00301023    0.00000000
     atom   22 type  1   force =     0.00256497   -0.00256497    0.00256497
     atom   23 type  1   force =    -0.00000000   -0.00330696    0.00330696
     atom   24 type  1   force =    -0.00411020    0.00411020    0.00000000
     atom   25 type  1   force =     0.00000000   -0.00000000   -0.00301023
     atom   26 type  1   force =     0.00256497    0.00256497   -0.00256497
     atom   27 type  1   force =     0.00256497    0.00256497    0.00256497
     atom   28 type  1   force =    -0.00000000   -0.00000000    0.00301023
     atom   29 type  1   force =    -0.00411020   -0.00411020   -0.00000000
     atom   30 type  1   force =     0.00000000    0.00330696   -0.00330696
     atom   31 type  1   force =    -0.00411020   -0.00000000    0.00411020
     atom   32 type  1   force =     0.00000000    0.00301023    0.00000000
     atom   33 type  1   force =    -0.00411020   -0.00000000   -0.00411020
     atom   34 type  1   force =     0.00000000    0.00330696    0.00330696
     atom   35 type  1   force =    -0.00447362   -0.00000000    0.00000000
     atom   36 type  1   force =     0.00249885   -0.00249885   -0.00249885
     atom   37 type  1   force =    -0.00000000    0.00411020    0.00411020
     atom   38 type  1   force =     0.00330696   -0.00330696    0.00000000
     atom   39 type  1   force =    -0.00000000    0.00411020   -0.00411020
     atom   40 type  1   force =     0.00249885   -0.00249885    0.00249885
     atom   41 type  1   force =     0.00000000    0.00447362    0.00000000
     atom   42 type  1   force =     0.00330696    0.00000000   -0.00330696
     atom   43 type  1   force =     0.00000000   -0.00411020    0.00411020
     atom   44 type  1   force =     0.00301023    0.00000000   -0.00000000
     atom   45 type  1   force =     0.00000000   -0.00411020   -0.00411020
     atom   46 type  1   force =     0.00330696    0.00000000    0.00330696
     atom   47 type  1   force =    -0.00000000   -0.00447362    0.00000000
     atom   48 type  1   force =     0.00249885    0.00249885   -0.00249885
     atom   49 type  1   force =     0.00000000    0.00000000    0.00447362
     atom   50 type  1   force =     0.00330696    0.00330696    0.00000000
     atom   51 type  1   force =     0.00000000    0.00000000   -0.00447362
     atom   52 type  1   force =     0.00249885    0.00249885    0.00249885
     atom   53 type  1   force =     0.00000000    0.00000000    0.00000000
     The Hubbard contrib.    to forces
     atom    1 type  1   force =     0.00000000    0.00000000    0.00000000
     atom    2 type  1   force =     0.00000000    0.00000000    0.00000000
     atom    3 type  1   force =     0.00000000    0.00000000    0.00000000
     atom    4 type  1   force =     0.00000000    0.00000000    0.00000000
     atom    5 type  1   force =     0.00000000    0.00000000    0.00000000
     atom    6 type  1   force =     0.00000000    0.00000000    0.00000000
     atom    7 type  1   force =     0.00000000    0.00000000    0.00000000
     atom    8 type  1   force =     0.00000000    0.00000000    0.00000000
     atom    9 type  1   force =     0.00000000    0.00000000    0.00000000
     atom   10 type  1   force =     0.00000000    0.00000000    0.00000000
     atom   11 type  1   force =     0.00000000    0.00000000    0.00000000
     atom   12 type  1   force =     0.00000000    0.00000000    0.00000000
     atom   13 type  1   force =     0.00000000    0.00000000    0.00000000
     atom   14 type  1   force =     0.00000000    0.00000000    0.00000000
     atom   15 type  1   force =     0.00000000    0.00000000    0.00000000
     atom   16 type  1   force =     0.00000000    0.00000000    0.00000000
     atom   17 type  1   force =     0.00000000    0.00000000    0.00000000
     atom   18 type  1   force =     0.00000000    0.00000000    0.00000000
     atom   19 type  1   force =     0.00000000    0.00000000    0.00000000
     atom   20 type  1   force =     0.00000000    0.00000000    0.00000000
     atom   21 type  1   force =     0.00000000    0.00000000    0.00000000
     atom   22 type  1   force =     0.00000000    0.00000000    0.00000000
     atom   23 type  1   force =     0.00000000    0.00000000    0.00000000
     atom   24 type  1   force =     0.00000000    0.00000000    0.00000000
     atom   25 type  1   force =     0.00000000    0.00000000    0.00000000
     atom   26 type  1   force =     0.00000000    0.00000000    0.00000000
     atom   27 type  1   force =     0.00000000    0.00000000    0.00000000
     atom   28 type  1   force =     0.00000000    0.00000000    0.00000000
     atom   29 type  1   force =     0.00000000    0.00000000    0.00000000
     atom   30 type  1   force =     0.00000000    0.00000000    0.00000000
     atom   31 type  1   force =     0.00000000    0.00000000    0.00000000
     atom   32 type  1   force =     0.00000000    0.00000000    0.00000000
     atom   33 type  1   force =     0.00000000    0.00000000    0.00000000
     atom   34 type  1   force =     0.00000000    0.00000000    0.00000000
     atom   35 type  1   force =     0.00000000    0.00000000    0.00000000
     atom   36 type  1   force =     0.00000000    0.00000000    0.00000000
     atom   37 type  1   force =     0.00000000    0.00000000    0.00000000
     atom   38 type  1   force =     0.00000000    0.00000000    0.00000000
     atom   39 type  1   force =     0.00000000    0.00000000    0.00000000
     atom   40 type  1   force =     0.00000000    0.00000000    0.00000000
     atom   41 type  1   force =     0.00000000    0.00000000    0.00000000
     atom   42 type  1   force =     0.00000000    0.00000000    0.00000000
     atom   43 type  1   force =     0.00000000    0.00000000    0.00000000
     atom   44 type  1   force =     0.00000000    0.00000000    0.00000000
     atom   45 type  1   force =     0.00000000    0.00000000    0.00000000
     atom   46 type  1   force =     0.00000000    0.00000000    0.00000000
     atom   47 type  1   force =     0.00000000    0.00000000    0.00000000
     atom   48 type  1   force =     0.00000000    0.00000000    0.00000000
     atom   49 type  1   force =     0.00000000    0.00000000    0.00000000
     atom   50 type  1   force =     0.00000000    0.00000000    0.00000000
     atom   51 type  1   force =     0.00000000    0.00000000    0.00000000
     atom   52 type  1   force =     0.00000000    0.00000000    0.00000000
     atom   53 type  1   force =     0.00000000    0.00000000    0.00000000
     The SCF correction term to forces
     atom    1 type  1   force =     0.00002067    0.00002067    0.00002067
     atom    2 type  1   force =     0.00002793    0.00002793    0.00002793
     atom    3 type  1   force =     0.00003069    0.00003069   -0.00000000
     atom    4 type  1   force =     0.00002793    0.00002793   -0.00002793
     atom    5 type  1   force =     0.00002067    0.00002067   -0.00002067
     atom    6 type  1   force =     0.00002955    0.00002955   -0.00000000
     atom    7 type  1   force =     0.00003069   -0.00000000    0.00003069
     atom    8 type  1   force =     0.00002793   -0.00002793    0.00002793
     atom    9 type  1   force =     0.00002382   -0.00000000   -0.00000000
     atom   10 type  1   force =     0.00002793   -0.00002793   -0.00002793
     atom   11 type  1   force =     0.00003069   -0.00000000   -0.00003069
     atom   12 type  1   force =     0.00002955   -0.00002955    0.00000000
     atom   13 type  1   force =     0.00002067   -0.00002067    0.00002067
     atom   14 type  1   force =     0.00002955   -0.00000000    0.00002955
     atom   15 type  1   force =     0.00003069   -0.00003069   -0.00000000
     atom   16 type  1   force =     0.00002955    0.00000000   -0.00002955
     atom   17 type  1   force =     0.00002067   -0.00002067   -0.00002067
     atom   18 type  1   force =     0.00002092    0.00000000    0.00000000
     atom   19 type  1   force =    -0.00000000    0.00003069    0.00003069
     atom   20 type  1   force =    -0.00002793    0.00002793    0.00002793
     atom   21 type  1   force =    -0.00000000    0.00002382   -0.00000000
     atom   22 type  1   force =    -0.00002793    0.00002793   -0.00002793
     atom   23 type  1   force =    -0.00000000    0.00003069   -0.00003069
     atom   24 type  1   force =    -0.00002955    0.00002955    0.00000000
     atom   25 type  1   force =    -0.00000000   -0.00000000    0.00002382
     atom   26 type  1   force =    -0.00002793   -0.00002793    0.00002793
     atom   27 type  1   force =    -0.00002793   -0.00002793   -0.00002793
     atom   28 type  1   force =     0.00000000    0.00000000   -0.00002382
     atom   29 type  1   force =    -0.00002955   -0.00002955    0.00000000
     atom   30 type  1   force =     0.00000000   -0.00003069    0.00003069
     atom   31 type  1   force =    -0.00002955    0.00000000    0.00002955
     atom   32 type  1   force =    -0.00000000   -0.00002382    0.00000000
     atom   33 type  1   force =    -0.00002955    0.00000000   -0.00002955
     atom   34 type  1   force =     0.00000000   -0.00003069   -0.00003069
     atom   35 type  1   force =    -0.00002092   -0.00000000    0.00000000
     atom   36 type  1   force =    -0.00002067    0.00002067    0.00002067
     atom   37 type  1   force =    -0.00000000    0.00002955    0.00002955
     atom   38 type  1   force =    -0.00003069    0.00003069    0.00000000
     atom   39 type  1   force =     0.00000000    0.00002955   -0.00002955
     atom   40 type  1   force =    -0.00002067    0.00002067   -0.00002067
     atom   41 type  1   force =     0.00000000    0.00002092    0.00000000
     atom   42 type  1   force =    -0.00003069    0.00000000    0.00003069
     atom   43 type  1   force =     0.00000000   -0.00002955    0.00002955
     atom   44 type  1   force =    -0.00002382    0.00000000    0.00000000
     atom   45 type  1   force =     0.00000000   -0.00002955   -0.00002955
     atom   46 type  1   force =    -0.00003069    0.00000000   -0.00003069
     atom   47 type  1   force =    -0.00000000   -0.00002092   -0.00000000
     atom   48 type  1   force =    -0.00002067   -0.00002067    0.00002067
     atom   49 type  1   force =    -0.00000000   -0.00000000    0.00002092
     atom   50 type  1   force =    -0.00003069   -0.00003069   -0.00000000
     atom   51 type  1   force =     0.00000000   -0.00000000   -0.00002092
     atom   52 type  1   force =    -0.00002067   -0.00002067   -0.00002067
     atom   53 type  1   force =     0.00000000   -0.00000000   -0.00000000

     Total force =     0.002988     Total SCF correction =     0.000280


     Computing stress (Cartesian axis) and pressure

          total   stress  (Ry/bohr**3)                   (kbar)     P=     -235.94
  -0.00160386   0.00000000   0.00000000         -235.94        0.00        0.00
   0.00000000  -0.00160386   0.00000000            0.00     -235.94        0.00
   0.00000000   0.00000000  -0.00160386            0.00        0.00     -235.94

     kinetic stress (kbar)  77434.75      0.00      0.00
                                0.00  77434.75      0.00
                                0.00      0.00  77434.75

     local   stress (kbar)  60597.39     -0.00     -0.00
                               -0.00  60597.39      0.00
                               -0.00      0.00  60597.39

     nonloc. stress (kbar) -60576.07      0.00      0.00
                                0.00 -60576.07      0.00
                                0.00      0.00 -60576.07

     hartree stress (kbar)  42118.00     -0.00     -0.00
                               -0.00  42118.00     -0.00
                               -0.00     -0.00  42118.00

     exc-cor stress (kbar)  -2353.24     -0.00     -0.00
                               -0.00  -2353.24     -0.00
                               -0.00     -0.00  -2353.24

     corecor stress (kbar) -15828.66      0.00      0.00
                                0.00 -15828.66      0.00
                                0.00      0.00 -15828.66

     ewald   stress (kbar)-101628.11      0.00     -0.00
                                0.00-101628.11     -0.00
                               -0.00     -0.00-101628.11

     hubbard stress (kbar)      0.00      0.00      0.00
                                0.00      0.00      0.00
                                0.00      0.00      0.00

     DFT-D   stress (kbar)      0.00      0.00      0.00
                                0.00      0.00      0.00
                                0.00      0.00      0.00

     XDM     stress (kbar)      0.00      0.00      0.00
                                0.00      0.00      0.00
                                0.00      0.00      0.00

     dft-nl  stress (kbar)      0.00      0.00      0.00
                                0.00      0.00      0.00
                                0.00      0.00      0.00

     TS-vdW  stress (kbar)      0.00      0.00      0.00
                                0.00      0.00      0.00
                                0.00      0.00      0.00

     MDB     stress (kbar)      0.00      0.00      0.00
                                0.00      0.00      0.00
                                0.00      0.00      0.00

     3D-RISM stress (kbar)      0.00      0.00      0.00
                                0.00      0.00      0.00
                                0.00      0.00      0.00

     Message from routine punch:
     Nothing written, as per user request (disk_io='none')

     init_run     :     47.06s CPU     49.50s WALL (       1 calls)
     electrons    :   3372.89s CPU   3539.84s WALL (       1 calls)
     forces       :     18.26s CPU     19.12s WALL (       1 calls)
     stress       :    397.94s CPU    407.35s WALL (       1 calls)

     Called by init_run:
     wfcinit      :     43.74s CPU     45.69s WALL (       1 calls)
     wfcinit:atom :      0.19s CPU      0.37s WALL (       7 calls)
     wfcinit:wfcr :     42.17s CPU     43.75s WALL (       7 calls)
     potinit      :      0.90s CPU      1.08s WALL (       1 calls)
     hinit0       :      1.06s CPU      1.14s WALL (       1 calls)

     Called by electrons:
     c_bands      :   2818.21s CPU   2950.62s WALL (      34 calls)
     sum_band     :    528.81s CPU    557.07s WALL (      34 calls)
     v_of_rho     :     16.37s CPU     20.61s WALL (      35 calls)
     v_h          :      1.26s CPU      1.66s WALL (      35 calls)
     v_xc         :     15.88s CPU     19.86s WALL (      37 calls)
     newd         :      5.97s CPU      7.39s WALL (      35 calls)
     mix_rho      :      1.42s CPU      1.72s WALL (      34 calls)

     Called by c_bands:
     init_us_2    :     36.28s CPU     37.05s WALL (     497 calls)
     cegterg      :   2654.90s CPU   2766.45s WALL (     238 calls)

     Called by sum_band:
     sum_band:wei :      0.32s CPU      0.36s WALL (      34 calls)
     sum_band:loo :    503.71s CPU    526.54s WALL (      34 calls)
     sum_band:buf :      5.06s CPU      5.32s WALL (     238 calls)
     sum_band:ini :     11.87s CPU     12.01s WALL (     238 calls)
     sum_band:cal :    121.28s CPU    127.01s WALL (     238 calls)
     sum_band:bec :      1.45s CPU      1.47s WALL (     238 calls)
     addusdens    :      4.78s CPU      6.29s WALL (      34 calls)
                                        0.00s GPU  (      34 calls)
     addusd:skk   :      0.42s CPU      0.47s WALL (      34 calls)
                                        0.00s GPU  (      34 calls)

     Called by *egterg:
     cdiaghg      :    110.33s CPU    124.81s WALL (     698 calls)
     cegterg:over :    249.68s CPU    258.11s WALL (     460 calls)
     cegterg:upda :    155.18s CPU    162.05s WALL (     460 calls)
     cegterg:last :    266.22s CPU    274.94s WALL (     349 calls)
     cdiaghg:chol :      9.06s CPU     10.48s WALL (     698 calls)
     cdiaghg:inve :      9.30s CPU     10.99s WALL (     698 calls)
     cdiaghg:para :     23.46s CPU     28.66s WALL (    1396 calls)
     h_psi        :   1557.72s CPU   1615.62s WALL (     705 calls)
     s_psi        :    237.41s CPU    239.99s WALL (     705 calls)
     g_psi        :      3.07s CPU      3.10s WALL (     460 calls)

     Called by h_psi:
     h_psi:calbec :    255.34s CPU    264.51s WALL (     705 calls)
     vloc_psi     :   1055.35s CPU   1093.46s WALL (     705 calls)
     add_vuspsi   :    237.65s CPU    240.08s WALL (     705 calls)

     General routines
     calbec       :    413.14s CPU    431.89s WALL (     978 calls)
     fft          :     10.82s CPU     13.28s WALL (     478 calls)
     ffts         :      0.89s CPU      1.03s WALL (      69 calls)
     fftw         :    772.53s CPU    816.59s WALL (  632478 calls)
     interpolate  :      1.56s CPU      1.77s WALL (      35 calls)

     Parallel routines

     PWSCF        :   3836.42s CPU   4017.21s WALL


   This run was terminated on:  18:45: 3  29May2025            

=------------------------------------------------------------------------------=
   JOB DONE.
=------------------------------------------------------------------------------=
