
     Program PWSCF v.7.3.1 starts on 11May2025 at  5:50: 1 

     This program is part of the open-source Quantum ESPRESSO suite
     for quantum simulation of materials; please cite
         "P. Giannozzi et al., J. Phys.:Condens. Matter 21 395502 (2009);
         "P. Giannozzi et al., J. Phys.:Condens. Matter 29 465901 (2017);
         "P. Giannozzi et al., J. Chem. Phys. 152 154105 (2020);
          URL http://www.quantum-espresso.org", 
     in publications or presentations arising from this work. More details at
     http://www.quantum-espresso.org/quote

     Parallel version (MPI & OpenMP), running on     128 processor cores
     Number of MPI processes:               128
     Threads/MPI process:                     1

     MPI processes distributed on     1 nodes
     460626 MiB available memory on the printing compute node when the environment starts

     Waiting for input...
     Reading input from standard input

     Current dimensions of program PWSCF are:
     Max number of different atomic species (ntypx) = 10
     Max number of k-points (npk) =  40000
     Max angular momentum in pseudopotentials (lmaxx) =  4

     K-points division:     npool     =      16
     R & G space division:  proc/nbgrp/npool/nimage =       8
     Subspace diagonalization in iterative solution of the eigenvalue problem:
     a serial algorithm will be used


     Parallelization info
     --------------------
     sticks:   dense  smooth     PW     G-vecs:    dense   smooth      PW
     Min         222      74     22                 5949     1147     199
     Max         223      75     23                 5951     1149     201
     Sum        1781     599    181                47597     9189    1601

     Using Slab Decomposition



     bravais-lattice index     =            3
     lattice parameter (alat)  =       5.4200  a.u.
     unit-cell volume          =      79.6100 (a.u.)^3
     number of atoms/cell      =            1
     number of atomic types    =            1
     number of electrons       =        16.00
     number of Kohn-Sham states=           12
     kinetic-energy cutoff     =      90.0000  Ry
     charge density cutoff     =    1080.0000  Ry
     scf convergence threshold =      1.0E-10
     mixing beta               =       0.2000
     number of iterations used =            8  plain     mixing
     Exchange-correlation= PBE
                           (   1   4   3   4   0   0   0)

     celldm(1)=   5.420000  celldm(2)=   0.000000  celldm(3)=   0.000000
     celldm(4)=   0.000000  celldm(5)=   0.000000  celldm(6)=   0.000000

     crystal axes: (cart. coord. in units of alat)
               a(1) = (   0.500000   0.500000   0.500000 )  
               a(2) = (  -0.500000   0.500000   0.500000 )  
               a(3) = (  -0.500000  -0.500000   0.500000 )  

     reciprocal axes: (cart. coord. in units 2 pi/alat)
               b(1) = (  1.000000  0.000000  1.000000 )  
               b(2) = ( -1.000000  1.000000  0.000000 )  
               b(3) = (  0.000000 -1.000000  1.000000 )  


     PseudoPot. # 1 for Fe read from file:
     ../../../pseudopotentials/Fe.pbe-spn-rrkjus_psl.0.2.1.UPF
     MD5 check sum: f9af58635850a145d9bd408d58feeb93
     Pseudo is Ultrasoft + core correction, Zval = 16.0
     Generated using "atomic" code by A. Dal Corso  v.5.0.2 svn rev. 9415
     Using radial grid of 1191 points,  6 beta functions with: 
                l(1) =   0
                l(2) =   0
                l(3) =   1
                l(4) =   1
                l(5) =   2
                l(6) =   2
     Q(r) pseudized with 0 coefficients 


     atomic species   valence    mass     pseudopotential
     Fe               16.00    55.84500     Fe( 1.00)

     Starting magnetic structure 
     atomic species   magnetization
     Fe              0.400

     48 Sym. Ops., with inversion, found


                                    s                        frac. trans.

      isym =  1     identity                                     

 cryst.   s( 1) = (     1          0          0      )
                  (     0          1          0      )
                  (     0          0          1      )

 cart.    s( 1) = (  1.0000000  0.0000000  0.0000000 )
                  (  0.0000000  1.0000000  0.0000000 )
                  (  0.0000000  0.0000000  1.0000000 )


      isym =  2     180 deg rotation - cart. axis [0,0,1]        

 cryst.   s( 2) = (     0          0          1      )
                  (     1         -1          1      )
                  (     1          0          0      )

 cart.    s( 2) = ( -1.0000000  0.0000000  0.0000000 )
                  (  0.0000000 -1.0000000  0.0000000 )
                  (  0.0000000  0.0000000  1.0000000 )


      isym =  3     180 deg rotation - cart. axis [0,1,0]        

 cryst.   s( 3) = (    -1          1         -1      )
                  (     0          0         -1      )
                  (     0         -1          0      )

 cart.    s( 3) = ( -1.0000000  0.0000000  0.0000000 )
                  (  0.0000000  1.0000000  0.0000000 )
                  (  0.0000000  0.0000000 -1.0000000 )


      isym =  4     180 deg rotation - cart. axis [1,0,0]        

 cryst.   s( 4) = (     0         -1          0      )
                  (    -1          0          0      )
                  (    -1          1         -1      )

 cart.    s( 4) = (  1.0000000  0.0000000  0.0000000 )
                  (  0.0000000 -1.0000000  0.0000000 )
                  (  0.0000000  0.0000000 -1.0000000 )


      isym =  5     180 deg rotation - cart. axis [1,1,0]        

 cryst.   s( 5) = (     0          0         -1      )
                  (     0         -1          0      )
                  (    -1          0          0      )

 cart.    s( 5) = (  0.0000000  1.0000000  0.0000000 )
                  (  1.0000000  0.0000000  0.0000000 )
                  (  0.0000000  0.0000000 -1.0000000 )


      isym =  6     180 deg rotation - cart. axis [1,-1,0]       

 cryst.   s( 6) = (    -1          0          0      )
                  (    -1          1         -1      )
                  (     0          0         -1      )

 cart.    s( 6) = (  0.0000000 -1.0000000  0.0000000 )
                  ( -1.0000000  0.0000000  0.0000000 )
                  (  0.0000000  0.0000000 -1.0000000 )


      isym =  7      90 deg rotation - cart. axis [0,0,-1]       

 cryst.   s( 7) = (     1         -1          1      )
                  (     1          0          0      )
                  (     0          1          0      )

 cart.    s( 7) = (  0.0000000  1.0000000  0.0000000 )
                  ( -1.0000000  0.0000000  0.0000000 )
                  (  0.0000000  0.0000000  1.0000000 )


      isym =  8      90 deg rotation - cart. axis [0,0,1]        

 cryst.   s( 8) = (     0          1          0      )
                  (     0          0          1      )
                  (     1         -1          1      )

 cart.    s( 8) = (  0.0000000 -1.0000000  0.0000000 )
                  (  1.0000000  0.0000000  0.0000000 )
                  (  0.0000000  0.0000000  1.0000000 )


      isym =  9     180 deg rotation - cart. axis [1,0,1]        

 cryst.   s( 9) = (     1         -1          1      )
                  (     0         -1          0      )
                  (     0          0         -1      )

 cart.    s( 9) = (  0.0000000  0.0000000  1.0000000 )
                  (  0.0000000 -1.0000000  0.0000000 )
                  (  1.0000000  0.0000000  0.0000000 )


      isym = 10     180 deg rotation - cart. axis [-1,0,1]       

 cryst.   s(10) = (    -1          0          0      )
                  (     0          0          1      )
                  (     0          1          0      )

 cart.    s(10) = (  0.0000000  0.0000000 -1.0000000 )
                  (  0.0000000 -1.0000000  0.0000000 )
                  ( -1.0000000  0.0000000  0.0000000 )


      isym = 11      90 deg rotation - cart. axis [0,1,0]        

 cryst.   s(11) = (     0          0         -1      )
                  (     1          0          0      )
                  (     1         -1          1      )

 cart.    s(11) = (  0.0000000  0.0000000  1.0000000 )
                  (  0.0000000  1.0000000  0.0000000 )
                  ( -1.0000000  0.0000000  0.0000000 )


      isym = 12      90 deg rotation - cart. axis [0,-1,0]       

 cryst.   s(12) = (     0          1          0      )
                  (    -1          1         -1      )
                  (    -1          0          0      )

 cart.    s(12) = (  0.0000000  0.0000000 -1.0000000 )
                  (  0.0000000  1.0000000  0.0000000 )
                  (  1.0000000  0.0000000  0.0000000 )


      isym = 13     180 deg rotation - cart. axis [0,1,1]        

 cryst.   s(13) = (     0          1          0      )
                  (     1          0          0      )
                  (     0          0         -1      )

 cart.    s(13) = ( -1.0000000  0.0000000  0.0000000 )
                  (  0.0000000  0.0000000  1.0000000 )
                  (  0.0000000  1.0000000  0.0000000 )


      isym = 14     180 deg rotation - cart. axis [0,1,-1]       

 cryst.   s(14) = (    -1          0          0      )
                  (     0         -1          0      )
                  (     1         -1          1      )

 cart.    s(14) = ( -1.0000000  0.0000000  0.0000000 )
                  (  0.0000000  0.0000000 -1.0000000 )
                  (  0.0000000 -1.0000000  0.0000000 )


      isym = 15      90 deg rotation - cart. axis [-1,0,0]       

 cryst.   s(15) = (     0          0         -1      )
                  (    -1          1         -1      )
                  (     0          1          0      )

 cart.    s(15) = (  1.0000000  0.0000000  0.0000000 )
                  (  0.0000000  0.0000000  1.0000000 )
                  (  0.0000000 -1.0000000  0.0000000 )


      isym = 16      90 deg rotation - cart. axis [1,0,0]        

 cryst.   s(16) = (     1         -1          1      )
                  (     0          0          1      )
                  (    -1          0          0      )

 cart.    s(16) = (  1.0000000  0.0000000  0.0000000 )
                  (  0.0000000  0.0000000 -1.0000000 )
                  (  0.0000000  1.0000000  0.0000000 )


      isym = 17     120 deg rotation - cart. axis [-1,-1,-1]     

 cryst.   s(17) = (     1          0          0      )
                  (     0          0         -1      )
                  (    -1          1         -1      )

 cart.    s(17) = (  0.0000000  1.0000000  0.0000000 )
                  (  0.0000000  0.0000000  1.0000000 )
                  (  1.0000000  0.0000000  0.0000000 )


      isym = 18     120 deg rotation - cart. axis [-1,1,1]       

 cryst.   s(18) = (    -1          1         -1      )
                  (     0          1          0      )
                  (     1          0          0      )

 cart.    s(18) = (  0.0000000 -1.0000000  0.0000000 )
                  (  0.0000000  0.0000000  1.0000000 )
                  ( -1.0000000  0.0000000  0.0000000 )


      isym = 19     120 deg rotation - cart. axis [1,1,-1]       

 cryst.   s(19) = (     0         -1          0      )
                  (     1         -1          1      )
                  (     0          0          1      )

 cart.    s(19) = (  0.0000000  1.0000000  0.0000000 )
                  (  0.0000000  0.0000000 -1.0000000 )
                  ( -1.0000000  0.0000000  0.0000000 )


      isym = 20     120 deg rotation - cart. axis [1,-1,1]       

 cryst.   s(20) = (     0          0          1      )
                  (    -1          0          0      )
                  (     0         -1          0      )

 cart.    s(20) = (  0.0000000 -1.0000000  0.0000000 )
                  (  0.0000000  0.0000000 -1.0000000 )
                  (  1.0000000  0.0000000  0.0000000 )


      isym = 21     120 deg rotation - cart. axis [1,1,1]        

 cryst.   s(21) = (     1          0          0      )
                  (     1         -1          1      )
                  (     0         -1          0      )

 cart.    s(21) = (  0.0000000  0.0000000  1.0000000 )
                  (  1.0000000  0.0000000  0.0000000 )
                  (  0.0000000  1.0000000  0.0000000 )


      isym = 22     120 deg rotation - cart. axis [-1,1,-1]      

 cryst.   s(22) = (     0         -1          0      )
                  (     0          0         -1      )
                  (     1          0          0      )

 cart.    s(22) = (  0.0000000  0.0000000  1.0000000 )
                  ( -1.0000000  0.0000000  0.0000000 )
                  (  0.0000000 -1.0000000  0.0000000 )


      isym = 23     120 deg rotation - cart. axis [1,-1,-1]      

 cryst.   s(23) = (     0          0          1      )
                  (     0          1          0      )
                  (    -1          1         -1      )

 cart.    s(23) = (  0.0000000  0.0000000 -1.0000000 )
                  ( -1.0000000  0.0000000  0.0000000 )
                  (  0.0000000  1.0000000  0.0000000 )


      isym = 24     120 deg rotation - cart. axis [-1,-1,1]      

 cryst.   s(24) = (    -1          1         -1      )
                  (    -1          0          0      )
                  (     0          0          1      )

 cart.    s(24) = (  0.0000000  0.0000000 -1.0000000 )
                  (  1.0000000  0.0000000  0.0000000 )
                  (  0.0000000 -1.0000000  0.0000000 )


      isym = 25     inversion                                    

 cryst.   s(25) = (    -1          0          0      )
                  (     0         -1          0      )
                  (     0          0         -1      )

 cart.    s(25) = ( -1.0000000  0.0000000  0.0000000 )
                  (  0.0000000 -1.0000000  0.0000000 )
                  (  0.0000000  0.0000000 -1.0000000 )


      isym = 26     inv. 180 deg rotation - cart. axis [0,0,1]   

 cryst.   s(26) = (     0          0         -1      )
                  (    -1          1         -1      )
                  (    -1          0          0      )

 cart.    s(26) = (  1.0000000  0.0000000  0.0000000 )
                  (  0.0000000  1.0000000  0.0000000 )
                  (  0.0000000  0.0000000 -1.0000000 )


      isym = 27     inv. 180 deg rotation - cart. axis [0,1,0]   

 cryst.   s(27) = (     1         -1          1      )
                  (     0          0          1      )
                  (     0          1          0      )

 cart.    s(27) = (  1.0000000  0.0000000  0.0000000 )
                  (  0.0000000 -1.0000000  0.0000000 )
                  (  0.0000000  0.0000000  1.0000000 )


      isym = 28     inv. 180 deg rotation - cart. axis [1,0,0]   

 cryst.   s(28) = (     0          1          0      )
                  (     1          0          0      )
                  (     1         -1          1      )

 cart.    s(28) = ( -1.0000000  0.0000000  0.0000000 )
                  (  0.0000000  1.0000000  0.0000000 )
                  (  0.0000000  0.0000000  1.0000000 )


      isym = 29     inv. 180 deg rotation - cart. axis [1,1,0]   

 cryst.   s(29) = (     0          0          1      )
                  (     0          1          0      )
                  (     1          0          0      )

 cart.    s(29) = (  0.0000000 -1.0000000  0.0000000 )
                  ( -1.0000000  0.0000000  0.0000000 )
                  (  0.0000000  0.0000000  1.0000000 )


      isym = 30     inv. 180 deg rotation - cart. axis [1,-1,0]  

 cryst.   s(30) = (     1          0          0      )
                  (     1         -1          1      )
                  (     0          0          1      )

 cart.    s(30) = (  0.0000000  1.0000000  0.0000000 )
                  (  1.0000000  0.0000000  0.0000000 )
                  (  0.0000000  0.0000000  1.0000000 )


      isym = 31     inv.  90 deg rotation - cart. axis [0,0,-1]  

 cryst.   s(31) = (    -1          1         -1      )
                  (    -1          0          0      )
                  (     0         -1          0      )

 cart.    s(31) = (  0.0000000 -1.0000000  0.0000000 )
                  (  1.0000000  0.0000000  0.0000000 )
                  (  0.0000000  0.0000000 -1.0000000 )


      isym = 32     inv.  90 deg rotation - cart. axis [0,0,1]   

 cryst.   s(32) = (     0         -1          0      )
                  (     0          0         -1      )
                  (    -1          1         -1      )

 cart.    s(32) = (  0.0000000  1.0000000  0.0000000 )
                  ( -1.0000000  0.0000000  0.0000000 )
                  (  0.0000000  0.0000000 -1.0000000 )


      isym = 33     inv. 180 deg rotation - cart. axis [1,0,1]   

 cryst.   s(33) = (    -1          1         -1      )
                  (     0          1          0      )
                  (     0          0          1      )

 cart.    s(33) = (  0.0000000  0.0000000 -1.0000000 )
                  (  0.0000000  1.0000000  0.0000000 )
                  ( -1.0000000  0.0000000  0.0000000 )


      isym = 34     inv. 180 deg rotation - cart. axis [-1,0,1]  

 cryst.   s(34) = (     1          0          0      )
                  (     0          0         -1      )
                  (     0         -1          0      )

 cart.    s(34) = (  0.0000000  0.0000000  1.0000000 )
                  (  0.0000000  1.0000000  0.0000000 )
                  (  1.0000000  0.0000000  0.0000000 )


      isym = 35     inv.  90 deg rotation - cart. axis [0,1,0]   

 cryst.   s(35) = (     0          0          1      )
                  (    -1          0          0      )
                  (    -1          1         -1      )

 cart.    s(35) = (  0.0000000  0.0000000 -1.0000000 )
                  (  0.0000000 -1.0000000  0.0000000 )
                  (  1.0000000  0.0000000  0.0000000 )


      isym = 36     inv.  90 deg rotation - cart. axis [0,-1,0]  

 cryst.   s(36) = (     0         -1          0      )
                  (     1         -1          1      )
                  (     1          0          0      )

 cart.    s(36) = (  0.0000000  0.0000000  1.0000000 )
                  (  0.0000000 -1.0000000  0.0000000 )
                  ( -1.0000000  0.0000000  0.0000000 )


      isym = 37     inv. 180 deg rotation - cart. axis [0,1,1]   

 cryst.   s(37) = (     0         -1          0      )
                  (    -1          0          0      )
                  (     0          0          1      )

 cart.    s(37) = (  1.0000000  0.0000000  0.0000000 )
                  (  0.0000000  0.0000000 -1.0000000 )
                  (  0.0000000 -1.0000000  0.0000000 )


      isym = 38     inv. 180 deg rotation - cart. axis [0,1,-1]  

 cryst.   s(38) = (     1          0          0      )
                  (     0          1          0      )
                  (    -1          1         -1      )

 cart.    s(38) = (  1.0000000  0.0000000  0.0000000 )
                  (  0.0000000  0.0000000  1.0000000 )
                  (  0.0000000  1.0000000  0.0000000 )


      isym = 39     inv.  90 deg rotation - cart. axis [-1,0,0]  

 cryst.   s(39) = (     0          0          1      )
                  (     1         -1          1      )
                  (     0         -1          0      )

 cart.    s(39) = ( -1.0000000  0.0000000  0.0000000 )
                  (  0.0000000  0.0000000 -1.0000000 )
                  (  0.0000000  1.0000000  0.0000000 )


      isym = 40     inv.  90 deg rotation - cart. axis [1,0,0]   

 cryst.   s(40) = (    -1          1         -1      )
                  (     0          0         -1      )
                  (     1          0          0      )

 cart.    s(40) = ( -1.0000000  0.0000000  0.0000000 )
                  (  0.0000000  0.0000000  1.0000000 )
                  (  0.0000000 -1.0000000  0.0000000 )


      isym = 41     inv. 120 deg rotation - cart. axis [-1,-1,-1]

 cryst.   s(41) = (    -1          0          0      )
                  (     0          0          1      )
                  (     1         -1          1      )

 cart.    s(41) = (  0.0000000 -1.0000000  0.0000000 )
                  (  0.0000000  0.0000000 -1.0000000 )
                  ( -1.0000000  0.0000000  0.0000000 )


      isym = 42     inv. 120 deg rotation - cart. axis [-1,1,1]  

 cryst.   s(42) = (     1         -1          1      )
                  (     0         -1          0      )
                  (    -1          0          0      )

 cart.    s(42) = (  0.0000000  1.0000000  0.0000000 )
                  (  0.0000000  0.0000000 -1.0000000 )
                  (  1.0000000  0.0000000  0.0000000 )


      isym = 43     inv. 120 deg rotation - cart. axis [1,1,-1]  

 cryst.   s(43) = (     0          1          0      )
                  (    -1          1         -1      )
                  (     0          0         -1      )

 cart.    s(43) = (  0.0000000 -1.0000000  0.0000000 )
                  (  0.0000000  0.0000000  1.0000000 )
                  (  1.0000000  0.0000000  0.0000000 )


      isym = 44     inv. 120 deg rotation - cart. axis [1,-1,1]  

 cryst.   s(44) = (     0          0         -1      )
                  (     1          0          0      )
                  (     0          1          0      )

 cart.    s(44) = (  0.0000000  1.0000000  0.0000000 )
                  (  0.0000000  0.0000000  1.0000000 )
                  ( -1.0000000  0.0000000  0.0000000 )


      isym = 45     inv. 120 deg rotation - cart. axis [1,1,1]   

 cryst.   s(45) = (    -1          0          0      )
                  (    -1          1         -1      )
                  (     0          1          0      )

 cart.    s(45) = (  0.0000000  0.0000000 -1.0000000 )
                  ( -1.0000000  0.0000000  0.0000000 )
                  (  0.0000000 -1.0000000  0.0000000 )


      isym = 46     inv. 120 deg rotation - cart. axis [-1,1,-1] 

 cryst.   s(46) = (     0          1          0      )
                  (     0          0          1      )
                  (    -1          0          0      )

 cart.    s(46) = (  0.0000000  0.0000000 -1.0000000 )
                  (  1.0000000  0.0000000  0.0000000 )
                  (  0.0000000  1.0000000  0.0000000 )


      isym = 47     inv. 120 deg rotation - cart. axis [1,-1,-1] 

 cryst.   s(47) = (     0          0         -1      )
                  (     0         -1          0      )
                  (     1         -1          1      )

 cart.    s(47) = (  0.0000000  0.0000000  1.0000000 )
                  (  1.0000000  0.0000000  0.0000000 )
                  (  0.0000000 -1.0000000  0.0000000 )


      isym = 48     inv. 120 deg rotation - cart. axis [-1,-1,1] 

 cryst.   s(48) = (     1         -1          1      )
                  (     1          0          0      )
                  (     0          0         -1      )

 cart.    s(48) = (  0.0000000  0.0000000  1.0000000 )
                  ( -1.0000000  0.0000000  0.0000000 )
                  (  0.0000000  1.0000000  0.0000000 )


     point group O_h (m-3m) 
     there are 10 classes
     the character table:

       E     8C3   3C2   6C4   6C2'  i     8S6   3s_h  6S4   6s_d 
A_1g   1.00  1.00  1.00  1.00  1.00  1.00  1.00  1.00  1.00  1.00
A_2g   1.00  1.00  1.00 -1.00 -1.00  1.00  1.00  1.00 -1.00 -1.00
E_g    2.00 -1.00  2.00  0.00  0.00  2.00 -1.00  2.00  0.00  0.00
T_1g   3.00  0.00 -1.00  1.00 -1.00  3.00  0.00 -1.00  1.00 -1.00
T_2g   3.00  0.00 -1.00 -1.00  1.00  3.00  0.00 -1.00 -1.00  1.00
A_1u   1.00  1.00  1.00  1.00  1.00 -1.00 -1.00 -1.00 -1.00 -1.00
A_2u   1.00  1.00  1.00 -1.00 -1.00 -1.00 -1.00 -1.00  1.00  1.00
E_u    2.00 -1.00  2.00  0.00  0.00 -2.00  1.00 -2.00  0.00  0.00
T_1u   3.00  0.00 -1.00  1.00 -1.00 -3.00  0.00  1.00 -1.00  1.00
T_2u   3.00  0.00 -1.00 -1.00  1.00 -3.00  0.00  1.00  1.00 -1.00

     the symmetry operations in each class and the name of the first element:

     E        1
          identity                                               
     8C3     17   19   20   18   24   21   22   23
          120 deg rotation - cart. axis [-1,-1,-1]               
     3C2      2    4    3
          180 deg rotation - cart. axis [0,0,1]                  
     6C4      7    8   15   16   12   11
           90 deg rotation - cart. axis [0,0,-1]                 
     6C2'     5    6   14   13   10    9
          180 deg rotation - cart. axis [1,1,0]                  
     i       25
          inversion                                              
     8S6     41   43   44   42   48   45   46   47
          inv. 120 deg rotation - cart. axis [-1,-1,-1]          
     3s_h    26   28   27
          inv. 180 deg rotation - cart. axis [0,0,1]             
     6S4     31   32   39   40   36   35
          inv.  90 deg rotation - cart. axis [0,0,-1]            
     6s_d    29   30   38   37   34   33
          inv. 180 deg rotation - cart. axis [1,1,0]             

   Cartesian axes

     site n.     atom                  positions (alat units)
         1        Fe     tau(   1) = (   0.0000000   0.0000000   0.0000000  )

   Crystallographic axes

     site n.     atom                  positions (cryst. coord.)
         1        Fe     tau(   1) = (  0.0000000  0.0000000  0.0000000  )

     number of k points=   145  Marzari-Vanderbilt smearing, width (Ry)=  0.0100
                       cart. coord. in units 2pi/alat
        k(    1) = (   0.0000000   0.0000000   0.0000000), wk =   0.0002441
        k(    2) = (   0.0000000  -0.0625000   0.0625000), wk =   0.0029297
        k(    3) = (   0.0000000  -0.1250000   0.1250000), wk =   0.0029297
        k(    4) = (   0.0000000  -0.1875000   0.1875000), wk =   0.0029297
        k(    5) = (   0.0000000  -0.2500000   0.2500000), wk =   0.0029297
        k(    6) = (   0.0000000  -0.3125000   0.3125000), wk =   0.0029297
        k(    7) = (   0.0000000  -0.3750000   0.3750000), wk =   0.0029297
        k(    8) = (   0.0000000  -0.4375000   0.4375000), wk =   0.0029297
        k(    9) = (   0.0000000   0.5000000  -0.5000000), wk =   0.0014648
        k(   10) = (  -0.0625000  -0.0625000   0.1250000), wk =   0.0058594
        k(   11) = (  -0.0625000  -0.1250000   0.1875000), wk =   0.0117188
        k(   12) = (  -0.0625000  -0.1875000   0.2500000), wk =   0.0117188
        k(   13) = (  -0.0625000  -0.2500000   0.3125000), wk =   0.0117188
        k(   14) = (  -0.0625000  -0.3125000   0.3750000), wk =   0.0117188
        k(   15) = (  -0.0625000  -0.3750000   0.4375000), wk =   0.0117188
        k(   16) = (  -0.0625000   0.5625000  -0.5000000), wk =   0.0117188
        k(   17) = (  -0.1250000  -0.1250000   0.2500000), wk =   0.0058594
        k(   18) = (  -0.1250000  -0.1875000   0.3125000), wk =   0.0117188
        k(   19) = (  -0.1250000  -0.2500000   0.3750000), wk =   0.0117188
        k(   20) = (  -0.1250000  -0.3125000   0.4375000), wk =   0.0117188
        k(   21) = (  -0.1250000   0.6250000  -0.5000000), wk =   0.0117188
        k(   22) = (  -0.1250000   0.5625000  -0.4375000), wk =   0.0058594
        k(   23) = (  -0.1875000  -0.1875000   0.3750000), wk =   0.0058594
        k(   24) = (  -0.1875000  -0.2500000   0.4375000), wk =   0.0117188
        k(   25) = (  -0.1875000   0.6875000  -0.5000000), wk =   0.0117188
        k(   26) = (  -0.1875000   0.6250000  -0.4375000), wk =   0.0117188
        k(   27) = (  -0.2500000   0.7500000  -0.5000000), wk =   0.0058594
        k(   28) = (  -0.2500000   0.6875000  -0.4375000), wk =   0.0117188
        k(   29) = (  -0.2500000   0.6250000  -0.3750000), wk =   0.0058594
        k(   30) = (  -0.3125000   0.6875000  -0.3750000), wk =   0.0058594
        k(   31) = (   0.0000000   0.0000000   0.1250000), wk =   0.0014648
        k(   32) = (   0.0000000  -0.0625000   0.1875000), wk =   0.0058594
        k(   33) = (   0.0000000  -0.1250000   0.2500000), wk =   0.0058594
        k(   34) = (   0.0000000  -0.1875000   0.3125000), wk =   0.0058594
        k(   35) = (   0.0000000  -0.2500000   0.3750000), wk =   0.0058594
        k(   36) = (   0.0000000  -0.3125000   0.4375000), wk =   0.0058594
        k(   37) = (   0.0000000  -0.3750000   0.5000000), wk =   0.0058594
        k(   38) = (   0.0000000   0.5625000  -0.4375000), wk =   0.0029297
        k(   39) = (  -0.0625000  -0.0625000   0.2500000), wk =   0.0058594
        k(   40) = (  -0.0625000  -0.1250000   0.3125000), wk =   0.0117188
        k(   41) = (  -0.0625000  -0.1875000   0.3750000), wk =   0.0117188
        k(   42) = (  -0.0625000  -0.2500000   0.4375000), wk =   0.0117188
        k(   43) = (  -0.0625000  -0.3125000   0.5000000), wk =   0.0117188
        k(   44) = (  -0.0625000   0.6250000  -0.4375000), wk =   0.0117188
        k(   45) = (  -0.1250000   0.1250000   0.1250000), wk =   0.0019531
        k(   46) = (  -0.1250000  -0.1250000   0.3750000), wk =   0.0058594
        k(   47) = (  -0.1250000  -0.1875000   0.4375000), wk =   0.0117188
        k(   48) = (  -0.1250000  -0.2500000   0.5000000), wk =   0.0117188
        k(   49) = (  -0.1250000   0.6875000  -0.4375000), wk =   0.0117188
        k(   50) = (  -0.1250000   0.6250000  -0.3750000), wk =   0.0058594
        k(   51) = (  -0.1875000   0.1875000   0.1250000), wk =   0.0058594
        k(   52) = (  -0.1875000  -0.1875000   0.5000000), wk =   0.0058594
        k(   53) = (  -0.1875000   0.7500000  -0.4375000), wk =   0.0117188
        k(   54) = (  -0.1875000   0.6875000  -0.3750000), wk =   0.0117188
        k(   55) = (  -0.2500000   0.2500000   0.1250000), wk =   0.0058594
        k(   56) = (  -0.2500000   0.1875000   0.1875000), wk =   0.0058594
        k(   57) = (  -0.2500000   0.7500000  -0.3750000), wk =   0.0058594
        k(   58) = (  -0.2500000   0.6875000  -0.3125000), wk =   0.0058594
        k(   59) = (  -0.3125000   0.3125000   0.1250000), wk =   0.0058594
        k(   60) = (  -0.3125000   0.2500000   0.1875000), wk =   0.0117188
        k(   61) = (  -0.3750000   0.3750000   0.1250000), wk =   0.0058594
        k(   62) = (  -0.3750000   0.3125000   0.1875000), wk =   0.0117188
        k(   63) = (  -0.3750000   0.2500000   0.2500000), wk =   0.0058594
        k(   64) = (   0.5625000  -0.5625000   0.1250000), wk =   0.0058594
        k(   65) = (   0.5625000  -0.6250000   0.1875000), wk =   0.0117188
        k(   66) = (   0.5625000  -0.6875000   0.2500000), wk =   0.0117188
        k(   67) = (   0.5000000  -0.5000000   0.1250000), wk =   0.0029297
        k(   68) = (   0.5000000  -0.5625000   0.1875000), wk =   0.0117188
        k(   69) = (   0.5000000  -0.6250000   0.2500000), wk =   0.0117188
        k(   70) = (   0.5000000  -0.6875000   0.3125000), wk =   0.0058594
        k(   71) = (   0.4375000  -0.5625000   0.2500000), wk =   0.0058594
        k(   72) = (   0.4375000  -0.6250000   0.3125000), wk =   0.0117188
        k(   73) = (   0.3750000  -0.6250000   0.3750000), wk =   0.0019531
        k(   74) = (   0.0000000   0.0000000   0.2500000), wk =   0.0014648
        k(   75) = (   0.0000000  -0.0625000   0.3125000), wk =   0.0058594
        k(   76) = (   0.0000000  -0.1250000   0.3750000), wk =   0.0058594
        k(   77) = (   0.0000000  -0.1875000   0.4375000), wk =   0.0058594
        k(   78) = (   0.0000000  -0.2500000   0.5000000), wk =   0.0058594
        k(   79) = (   0.0000000  -0.3125000   0.5625000), wk =   0.0058594
        k(   80) = (   0.0000000   0.6250000  -0.3750000), wk =   0.0029297
        k(   81) = (  -0.0625000  -0.0625000   0.3750000), wk =   0.0058594
        k(   82) = (  -0.0625000  -0.1250000   0.4375000), wk =   0.0117188
        k(   83) = (  -0.0625000  -0.1875000   0.5000000), wk =   0.0117188
        k(   84) = (  -0.0625000  -0.2500000   0.5625000), wk =   0.0117188
        k(   85) = (  -0.0625000   0.6875000  -0.3750000), wk =   0.0117188
        k(   86) = (  -0.1250000  -0.1250000   0.5000000), wk =   0.0058594
        k(   87) = (  -0.1250000  -0.1875000   0.5625000), wk =   0.0117188
        k(   88) = (  -0.1250000   0.7500000  -0.3750000), wk =   0.0117188
        k(   89) = (  -0.1250000   0.6875000  -0.3125000), wk =   0.0058594
        k(   90) = (  -0.1875000   0.8125000  -0.3750000), wk =   0.0058594
        k(   91) = (  -0.1875000   0.7500000  -0.3125000), wk =   0.0117188
        k(   92) = (  -0.2500000   0.2500000   0.2500000), wk =   0.0019531
        k(   93) = (  -0.2500000   0.7500000  -0.2500000), wk =   0.0019531
        k(   94) = (  -0.3125000   0.3125000   0.2500000), wk =   0.0058594
        k(   95) = (   0.6250000  -0.6250000   0.2500000), wk =   0.0058594
        k(   96) = (   0.6250000  -0.6875000   0.3125000), wk =   0.0058594
        k(   97) = (   0.5625000  -0.5625000   0.2500000), wk =   0.0058594
        k(   98) = (   0.5625000  -0.6250000   0.3125000), wk =   0.0117188
        k(   99) = (   0.5000000  -0.5000000   0.2500000), wk =   0.0029297
        k(  100) = (   0.5000000  -0.5625000   0.3125000), wk =   0.0117188
        k(  101) = (   0.5000000  -0.6250000   0.3750000), wk =   0.0058594
        k(  102) = (   0.4375000  -0.5625000   0.3750000), wk =   0.0058594
        k(  103) = (   0.0000000   0.0000000   0.3750000), wk =   0.0014648
        k(  104) = (   0.0000000  -0.0625000   0.4375000), wk =   0.0058594
        k(  105) = (   0.0000000  -0.1250000   0.5000000), wk =   0.0058594
        k(  106) = (   0.0000000  -0.1875000   0.5625000), wk =   0.0058594
        k(  107) = (   0.0000000  -0.2500000   0.6250000), wk =   0.0058594
        k(  108) = (   0.0000000   0.6875000  -0.3125000), wk =   0.0029297
        k(  109) = (  -0.0625000  -0.0625000   0.5000000), wk =   0.0058594
        k(  110) = (  -0.0625000  -0.1250000   0.5625000), wk =   0.0117188
        k(  111) = (  -0.0625000  -0.1875000   0.6250000), wk =   0.0117188
        k(  112) = (  -0.0625000   0.7500000  -0.3125000), wk =   0.0117188
        k(  113) = (  -0.1250000  -0.1250000   0.6250000), wk =   0.0058594
        k(  114) = (  -0.1250000   0.8125000  -0.3125000), wk =   0.0117188
        k(  115) = (  -0.1250000   0.7500000  -0.2500000), wk =   0.0058594
        k(  116) = (  -0.1875000   0.8125000  -0.2500000), wk =   0.0058594
        k(  117) = (   0.6250000  -0.6250000   0.3750000), wk =   0.0019531
        k(  118) = (   0.5625000  -0.5625000   0.3750000), wk =   0.0058594
        k(  119) = (   0.5000000  -0.5000000   0.3750000), wk =   0.0029297
        k(  120) = (   0.5000000  -0.5625000   0.4375000), wk =   0.0058594
        k(  121) = (   0.0000000   0.0000000   0.5000000), wk =   0.0014648
        k(  122) = (   0.0000000  -0.0625000   0.5625000), wk =   0.0058594
        k(  123) = (   0.0000000  -0.1250000   0.6250000), wk =   0.0058594
        k(  124) = (   0.0000000  -0.1875000   0.6875000), wk =   0.0058594
        k(  125) = (   0.0000000   0.7500000  -0.2500000), wk =   0.0029297
        k(  126) = (  -0.0625000  -0.0625000   0.6250000), wk =   0.0058594
        k(  127) = (  -0.0625000  -0.1250000   0.6875000), wk =   0.0117188
        k(  128) = (  -0.0625000   0.8125000  -0.2500000), wk =   0.0117188
        k(  129) = (  -0.1250000   0.8750000  -0.2500000), wk =   0.0058594
        k(  130) = (  -0.1250000   0.8125000  -0.1875000), wk =   0.0058594
        k(  131) = (   0.5000000  -0.5000000   0.5000000), wk =   0.0004883
        k(  132) = (   0.0000000   0.0000000   0.6250000), wk =   0.0014648
        k(  133) = (   0.0000000  -0.0625000   0.6875000), wk =   0.0058594
        k(  134) = (   0.0000000  -0.1250000   0.7500000), wk =   0.0058594
        k(  135) = (   0.0000000   0.8125000  -0.1875000), wk =   0.0029297
        k(  136) = (  -0.0625000  -0.0625000   0.7500000), wk =   0.0058594
        k(  137) = (  -0.0625000   0.8750000  -0.1875000), wk =   0.0117188
        k(  138) = (  -0.1250000   0.8750000  -0.1250000), wk =   0.0019531
        k(  139) = (   0.0000000   0.0000000   0.7500000), wk =   0.0014648
        k(  140) = (   0.0000000  -0.0625000   0.8125000), wk =   0.0058594
        k(  141) = (   0.0000000   0.8750000  -0.1250000), wk =   0.0029297
        k(  142) = (  -0.0625000   0.9375000  -0.1250000), wk =   0.0058594
        k(  143) = (   0.0000000   0.0000000   0.8750000), wk =   0.0014648
        k(  144) = (   0.0000000   0.9375000  -0.0625000), wk =   0.0029297
        k(  145) = (   0.0000000   0.0000000  -1.0000000), wk =   0.0002441

                       cryst. coord.
        k(    1) = (   0.0000000   0.0000000   0.0000000), wk =   0.0002441
        k(    2) = (   0.0000000   0.0000000   0.0625000), wk =   0.0029297
        k(    3) = (   0.0000000   0.0000000   0.1250000), wk =   0.0029297
        k(    4) = (   0.0000000   0.0000000   0.1875000), wk =   0.0029297
        k(    5) = (   0.0000000   0.0000000   0.2500000), wk =   0.0029297
        k(    6) = (   0.0000000   0.0000000   0.3125000), wk =   0.0029297
        k(    7) = (   0.0000000   0.0000000   0.3750000), wk =   0.0029297
        k(    8) = (   0.0000000   0.0000000   0.4375000), wk =   0.0029297
        k(    9) = (   0.0000000   0.0000000  -0.5000000), wk =   0.0014648
        k(   10) = (   0.0000000   0.0625000   0.1250000), wk =   0.0058594
        k(   11) = (   0.0000000   0.0625000   0.1875000), wk =   0.0117188
        k(   12) = (   0.0000000   0.0625000   0.2500000), wk =   0.0117188
        k(   13) = (   0.0000000   0.0625000   0.3125000), wk =   0.0117188
        k(   14) = (   0.0000000   0.0625000   0.3750000), wk =   0.0117188
        k(   15) = (   0.0000000   0.0625000   0.4375000), wk =   0.0117188
        k(   16) = (   0.0000000   0.0625000  -0.5000000), wk =   0.0117188
        k(   17) = (   0.0000000   0.1250000   0.2500000), wk =   0.0058594
        k(   18) = (   0.0000000   0.1250000   0.3125000), wk =   0.0117188
        k(   19) = (   0.0000000   0.1250000   0.3750000), wk =   0.0117188
        k(   20) = (   0.0000000   0.1250000   0.4375000), wk =   0.0117188
        k(   21) = (   0.0000000   0.1250000  -0.5000000), wk =   0.0117188
        k(   22) = (   0.0000000   0.1250000  -0.4375000), wk =   0.0058594
        k(   23) = (   0.0000000   0.1875000   0.3750000), wk =   0.0058594
        k(   24) = (   0.0000000   0.1875000   0.4375000), wk =   0.0117188
        k(   25) = (   0.0000000   0.1875000  -0.5000000), wk =   0.0117188
        k(   26) = (   0.0000000   0.1875000  -0.4375000), wk =   0.0117188
        k(   27) = (   0.0000000   0.2500000  -0.5000000), wk =   0.0058594
        k(   28) = (   0.0000000   0.2500000  -0.4375000), wk =   0.0117188
        k(   29) = (   0.0000000   0.2500000  -0.3750000), wk =   0.0058594
        k(   30) = (   0.0000000   0.3125000  -0.3750000), wk =   0.0058594
        k(   31) = (   0.0625000   0.0625000   0.0625000), wk =   0.0014648
        k(   32) = (   0.0625000   0.0625000   0.1250000), wk =   0.0058594
        k(   33) = (   0.0625000   0.0625000   0.1875000), wk =   0.0058594
        k(   34) = (   0.0625000   0.0625000   0.2500000), wk =   0.0058594
        k(   35) = (   0.0625000   0.0625000   0.3125000), wk =   0.0058594
        k(   36) = (   0.0625000   0.0625000   0.3750000), wk =   0.0058594
        k(   37) = (   0.0625000   0.0625000   0.4375000), wk =   0.0058594
        k(   38) = (   0.0625000   0.0625000  -0.5000000), wk =   0.0029297
        k(   39) = (   0.0625000   0.1250000   0.1875000), wk =   0.0058594
        k(   40) = (   0.0625000   0.1250000   0.2500000), wk =   0.0117188
        k(   41) = (   0.0625000   0.1250000   0.3125000), wk =   0.0117188
        k(   42) = (   0.0625000   0.1250000   0.3750000), wk =   0.0117188
        k(   43) = (   0.0625000   0.1250000   0.4375000), wk =   0.0117188
        k(   44) = (   0.0625000   0.1250000  -0.5000000), wk =   0.0117188
        k(   45) = (   0.0625000   0.1875000   0.0625000), wk =   0.0019531
        k(   46) = (   0.0625000   0.1875000   0.3125000), wk =   0.0058594
        k(   47) = (   0.0625000   0.1875000   0.3750000), wk =   0.0117188
        k(   48) = (   0.0625000   0.1875000   0.4375000), wk =   0.0117188
        k(   49) = (   0.0625000   0.1875000  -0.5000000), wk =   0.0117188
        k(   50) = (   0.0625000   0.1875000  -0.4375000), wk =   0.0058594
        k(   51) = (   0.0625000   0.2500000   0.0625000), wk =   0.0058594
        k(   52) = (   0.0625000   0.2500000   0.4375000), wk =   0.0058594
        k(   53) = (   0.0625000   0.2500000  -0.5000000), wk =   0.0117188
        k(   54) = (   0.0625000   0.2500000  -0.4375000), wk =   0.0117188
        k(   55) = (   0.0625000   0.3125000   0.0625000), wk =   0.0058594
        k(   56) = (   0.0625000   0.3125000   0.1250000), wk =   0.0058594
        k(   57) = (   0.0625000   0.3125000  -0.4375000), wk =   0.0058594
        k(   58) = (   0.0625000   0.3125000  -0.3750000), wk =   0.0058594
        k(   59) = (   0.0625000   0.3750000   0.0625000), wk =   0.0058594
        k(   60) = (   0.0625000   0.3750000   0.1250000), wk =   0.0117188
        k(   61) = (   0.0625000   0.4375000   0.0625000), wk =   0.0058594
        k(   62) = (   0.0625000   0.4375000   0.1250000), wk =   0.0117188
        k(   63) = (   0.0625000   0.4375000   0.1875000), wk =   0.0058594
        k(   64) = (   0.0625000  -0.5000000   0.0625000), wk =   0.0058594
        k(   65) = (   0.0625000  -0.5000000   0.1250000), wk =   0.0117188
        k(   66) = (   0.0625000  -0.5000000   0.1875000), wk =   0.0117188
        k(   67) = (   0.0625000  -0.4375000   0.0625000), wk =   0.0029297
        k(   68) = (   0.0625000  -0.4375000   0.1250000), wk =   0.0117188
        k(   69) = (   0.0625000  -0.4375000   0.1875000), wk =   0.0117188
        k(   70) = (   0.0625000  -0.4375000   0.2500000), wk =   0.0058594
        k(   71) = (   0.0625000  -0.3750000   0.1875000), wk =   0.0058594
        k(   72) = (   0.0625000  -0.3750000   0.2500000), wk =   0.0117188
        k(   73) = (   0.0625000  -0.3125000   0.3125000), wk =   0.0019531
        k(   74) = (   0.1250000   0.1250000   0.1250000), wk =   0.0014648
        k(   75) = (   0.1250000   0.1250000   0.1875000), wk =   0.0058594
        k(   76) = (   0.1250000   0.1250000   0.2500000), wk =   0.0058594
        k(   77) = (   0.1250000   0.1250000   0.3125000), wk =   0.0058594
        k(   78) = (   0.1250000   0.1250000   0.3750000), wk =   0.0058594
        k(   79) = (   0.1250000   0.1250000   0.4375000), wk =   0.0058594
        k(   80) = (   0.1250000   0.1250000  -0.5000000), wk =   0.0029297
        k(   81) = (   0.1250000   0.1875000   0.2500000), wk =   0.0058594
        k(   82) = (   0.1250000   0.1875000   0.3125000), wk =   0.0117188
        k(   83) = (   0.1250000   0.1875000   0.3750000), wk =   0.0117188
        k(   84) = (   0.1250000   0.1875000   0.4375000), wk =   0.0117188
        k(   85) = (   0.1250000   0.1875000  -0.5000000), wk =   0.0117188
        k(   86) = (   0.1250000   0.2500000   0.3750000), wk =   0.0058594
        k(   87) = (   0.1250000   0.2500000   0.4375000), wk =   0.0117188
        k(   88) = (   0.1250000   0.2500000  -0.5000000), wk =   0.0117188
        k(   89) = (   0.1250000   0.2500000  -0.4375000), wk =   0.0058594
        k(   90) = (   0.1250000   0.3125000  -0.5000000), wk =   0.0058594
        k(   91) = (   0.1250000   0.3125000  -0.4375000), wk =   0.0117188
        k(   92) = (   0.1250000   0.3750000   0.1250000), wk =   0.0019531
        k(   93) = (   0.1250000   0.3750000  -0.3750000), wk =   0.0019531
        k(   94) = (   0.1250000   0.4375000   0.1250000), wk =   0.0058594
        k(   95) = (   0.1250000  -0.5000000   0.1250000), wk =   0.0058594
        k(   96) = (   0.1250000  -0.5000000   0.1875000), wk =   0.0058594
        k(   97) = (   0.1250000  -0.4375000   0.1250000), wk =   0.0058594
        k(   98) = (   0.1250000  -0.4375000   0.1875000), wk =   0.0117188
        k(   99) = (   0.1250000  -0.3750000   0.1250000), wk =   0.0029297
        k(  100) = (   0.1250000  -0.3750000   0.1875000), wk =   0.0117188
        k(  101) = (   0.1250000  -0.3750000   0.2500000), wk =   0.0058594
        k(  102) = (   0.1250000  -0.3125000   0.2500000), wk =   0.0058594
        k(  103) = (   0.1875000   0.1875000   0.1875000), wk =   0.0014648
        k(  104) = (   0.1875000   0.1875000   0.2500000), wk =   0.0058594
        k(  105) = (   0.1875000   0.1875000   0.3125000), wk =   0.0058594
        k(  106) = (   0.1875000   0.1875000   0.3750000), wk =   0.0058594
        k(  107) = (   0.1875000   0.1875000   0.4375000), wk =   0.0058594
        k(  108) = (   0.1875000   0.1875000  -0.5000000), wk =   0.0029297
        k(  109) = (   0.1875000   0.2500000   0.3125000), wk =   0.0058594
        k(  110) = (   0.1875000   0.2500000   0.3750000), wk =   0.0117188
        k(  111) = (   0.1875000   0.2500000   0.4375000), wk =   0.0117188
        k(  112) = (   0.1875000   0.2500000  -0.5000000), wk =   0.0117188
        k(  113) = (   0.1875000   0.3125000   0.4375000), wk =   0.0058594
        k(  114) = (   0.1875000   0.3125000  -0.5000000), wk =   0.0117188
        k(  115) = (   0.1875000   0.3125000  -0.4375000), wk =   0.0058594
        k(  116) = (   0.1875000   0.3750000  -0.4375000), wk =   0.0058594
        k(  117) = (   0.1875000  -0.4375000   0.1875000), wk =   0.0019531
        k(  118) = (   0.1875000  -0.3750000   0.1875000), wk =   0.0058594
        k(  119) = (   0.1875000  -0.3125000   0.1875000), wk =   0.0029297
        k(  120) = (   0.1875000  -0.3125000   0.2500000), wk =   0.0058594
        k(  121) = (   0.2500000   0.2500000   0.2500000), wk =   0.0014648
        k(  122) = (   0.2500000   0.2500000   0.3125000), wk =   0.0058594
        k(  123) = (   0.2500000   0.2500000   0.3750000), wk =   0.0058594
        k(  124) = (   0.2500000   0.2500000   0.4375000), wk =   0.0058594
        k(  125) = (   0.2500000   0.2500000  -0.5000000), wk =   0.0029297
        k(  126) = (   0.2500000   0.3125000   0.3750000), wk =   0.0058594
        k(  127) = (   0.2500000   0.3125000   0.4375000), wk =   0.0117188
        k(  128) = (   0.2500000   0.3125000  -0.5000000), wk =   0.0117188
        k(  129) = (   0.2500000   0.3750000  -0.5000000), wk =   0.0058594
        k(  130) = (   0.2500000   0.3750000  -0.4375000), wk =   0.0058594
        k(  131) = (   0.2500000  -0.2500000   0.2500000), wk =   0.0004883
        k(  132) = (   0.3125000   0.3125000   0.3125000), wk =   0.0014648
        k(  133) = (   0.3125000   0.3125000   0.3750000), wk =   0.0058594
        k(  134) = (   0.3125000   0.3125000   0.4375000), wk =   0.0058594
        k(  135) = (   0.3125000   0.3125000  -0.5000000), wk =   0.0029297
        k(  136) = (   0.3125000   0.3750000   0.4375000), wk =   0.0058594
        k(  137) = (   0.3125000   0.3750000  -0.5000000), wk =   0.0117188
        k(  138) = (   0.3125000   0.4375000  -0.4375000), wk =   0.0019531
        k(  139) = (   0.3750000   0.3750000   0.3750000), wk =   0.0014648
        k(  140) = (   0.3750000   0.3750000   0.4375000), wk =   0.0058594
        k(  141) = (   0.3750000   0.3750000  -0.5000000), wk =   0.0029297
        k(  142) = (   0.3750000   0.4375000  -0.5000000), wk =   0.0058594
        k(  143) = (   0.4375000   0.4375000   0.4375000), wk =   0.0014648
        k(  144) = (   0.4375000   0.4375000  -0.5000000), wk =   0.0029297
        k(  145) = (  -0.5000000  -0.5000000  -0.5000000), wk =   0.0002441

     Dense  grid:    47597 G-vectors     FFT dimensions: (  50,  50,  50)

     Smooth grid:     9189 G-vectors     FFT dimensions: (  30,  30,  30)

     Dynamical RAM for                 wfc:       0.03 MB

     Dynamical RAM for     wfc (w. buffer):       0.52 MB

     Dynamical RAM for           str. fact:       0.09 MB

     Dynamical RAM for           local pot:       0.00 MB

     Dynamical RAM for          nlocal pot:       0.04 MB

     Dynamical RAM for                qrad:       2.64 MB

     Dynamical RAM for          rho,v,vnew:       1.35 MB

     Dynamical RAM for               rhoin:       0.45 MB

     Dynamical RAM for            rho*nmix:       2.91 MB

     Dynamical RAM for           G-vectors:       0.35 MB

     Dynamical RAM for          h,s,v(r/c):       0.03 MB

     Dynamical RAM for          <psi|beta>:       0.00 MB

     Dynamical RAM for                 psi:       0.05 MB

     Dynamical RAM for                hpsi:       0.05 MB

     Dynamical RAM for                spsi:       0.05 MB

     Dynamical RAM for      wfcinit/wfcrot:       0.06 MB

     Dynamical RAM for           addusdens:       1.23 MB

     Dynamical RAM for          addusforce:       1.16 MB

     Dynamical RAM for         addusstress:       1.23 MB

     Estimated static dynamical RAM per process >       6.42 MB

     Estimated max dynamical RAM per process >      10.56 MB

     Estimated total dynamical RAM >    1002.46 MB

     Atomic positions and unit cell read from directory:
     ./tmp/fe_bcc_fm.save/
     Message from routine qexsd_readschema :
     xml data file ./tmp/fe_bcc_fm.save/data-file-schema.xml not found
     Nothing found: using input atomic positions and unit cell


     Check: negative core charge=   -0.000010
     Generating pointlists ...
     new r_m :   0.3572 (alat units)  1.9362 (a.u.) for type    1
     Cannot read rho : file not found

     Initial potential from superposition of free atoms

     starting charge      15.9996, renormalised to      16.0000
     Message from routine qexsd_readschema :
     xml data file ./tmp/fe_bcc_fm.save/data-file-schema.xml not found
     Cannot read wfcs: file not found
     Starting wfcs are   13 randomized atomic wfcs

     total cpu time spent up to now is        1.4 secs

     per-process dynamical memory:   185.0 Mb

     Self-consistent Calculation

     iteration #  1     ecut=    90.00 Ry     beta= 0.20
     Davidson diagonalization with overlap

---- Real-time Memory Report at c_bands before calling an iterative solver
           304 MiB given to the printing process from OS
           180 MiB allocation reported by mallinfo(arena+hblkhd)
        458284 MiB available memory on the node where the printing process lives
------------------
     ethr =  1.00E-05,  avg # of iterations = 10.8

     total cpu time spent up to now is        2.7 secs

     total energy              =    -254.21892961 Ry
     estimated scf accuracy    <       0.26296249 Ry

     total magnetization       =     3.23 Bohr mag/cell
     absolute magnetization    =     3.28 Bohr mag/cell

     iteration #  2     ecut=    90.00 Ry     beta= 0.20
     Davidson diagonalization with overlap

---- Real-time Memory Report at c_bands before calling an iterative solver
           337 MiB given to the printing process from OS
           181 MiB allocation reported by mallinfo(arena+hblkhd)
        458166 MiB available memory on the node where the printing process lives
------------------
     ethr =  1.64E-03,  avg # of iterations =  1.0

     negative rho (up, down):  0.000E+00 3.681E-05

     total cpu time spent up to now is        3.3 secs

     total energy              =    -254.33357884 Ry
     estimated scf accuracy    <       0.17216984 Ry

     total magnetization       =     3.14 Bohr mag/cell
     absolute magnetization    =     3.20 Bohr mag/cell

     iteration #  3     ecut=    90.00 Ry     beta= 0.20
     Davidson diagonalization with overlap

---- Real-time Memory Report at c_bands before calling an iterative solver
           338 MiB given to the printing process from OS
           181 MiB allocation reported by mallinfo(arena+hblkhd)
        458191 MiB available memory on the node where the printing process lives
------------------
     ethr =  1.08E-03,  avg # of iterations =  1.0

     negative rho (up, down):  0.000E+00 5.858E-05

     total cpu time spent up to now is        4.1 secs

     total energy              =    -254.36174527 Ry
     estimated scf accuracy    <       0.03133228 Ry

     total magnetization       =     2.75 Bohr mag/cell
     absolute magnetization    =     2.88 Bohr mag/cell

     iteration #  4     ecut=    90.00 Ry     beta= 0.20
     Davidson diagonalization with overlap

---- Real-time Memory Report at c_bands before calling an iterative solver
           338 MiB given to the printing process from OS
           181 MiB allocation reported by mallinfo(arena+hblkhd)
        458183 MiB available memory on the node where the printing process lives
------------------
     ethr =  1.96E-04,  avg # of iterations =  1.5

     negative rho (up, down):  0.000E+00 5.143E-05

     total cpu time spent up to now is        4.8 secs

     total energy              =    -254.37045882 Ry
     estimated scf accuracy    <       0.00428830 Ry

     total magnetization       =     2.35 Bohr mag/cell
     absolute magnetization    =     2.52 Bohr mag/cell

     iteration #  5     ecut=    90.00 Ry     beta= 0.20
     Davidson diagonalization with overlap

---- Real-time Memory Report at c_bands before calling an iterative solver
           338 MiB given to the printing process from OS
           181 MiB allocation reported by mallinfo(arena+hblkhd)
        458189 MiB available memory on the node where the printing process lives
------------------
     ethr =  2.68E-05,  avg # of iterations =  2.9

     negative rho (up, down):  0.000E+00 1.841E-05

     total cpu time spent up to now is        5.5 secs

     total energy              =    -254.36276293 Ry
     estimated scf accuracy    <       0.01049747 Ry

     total magnetization       =     2.34 Bohr mag/cell
     absolute magnetization    =     2.50 Bohr mag/cell

     iteration #  6     ecut=    90.00 Ry     beta= 0.20
     Davidson diagonalization with overlap

---- Real-time Memory Report at c_bands before calling an iterative solver
           338 MiB given to the printing process from OS
           181 MiB allocation reported by mallinfo(arena+hblkhd)
        458186 MiB available memory on the node where the printing process lives
------------------
     ethr =  2.68E-05,  avg # of iterations =  2.6

     negative rho (up, down):  0.000E+00 2.949E-05

     total cpu time spent up to now is        6.1 secs

     total energy              =    -254.36891668 Ry
     estimated scf accuracy    <       0.02606491 Ry

     total magnetization       =     2.04 Bohr mag/cell
     absolute magnetization    =     2.17 Bohr mag/cell

     iteration #  7     ecut=    90.00 Ry     beta= 0.20
     Davidson diagonalization with overlap

---- Real-time Memory Report at c_bands before calling an iterative solver
           338 MiB given to the printing process from OS
           181 MiB allocation reported by mallinfo(arena+hblkhd)
        458187 MiB available memory on the node where the printing process lives
------------------
     ethr =  2.68E-05,  avg # of iterations =  2.0

     negative rho (up, down):  0.000E+00 3.037E-05

     total cpu time spent up to now is        6.8 secs

     total energy              =    -254.37310057 Ry
     estimated scf accuracy    <       0.00075032 Ry

     total magnetization       =     2.25 Bohr mag/cell
     absolute magnetization    =     2.39 Bohr mag/cell

     iteration #  8     ecut=    90.00 Ry     beta= 0.20
     Davidson diagonalization with overlap

---- Real-time Memory Report at c_bands before calling an iterative solver
           338 MiB given to the printing process from OS
           182 MiB allocation reported by mallinfo(arena+hblkhd)
        458184 MiB available memory on the node where the printing process lives
------------------
     ethr =  4.69E-06,  avg # of iterations =  1.9

     negative rho (up, down):  0.000E+00 2.970E-05

     total cpu time spent up to now is        7.4 secs

     total energy              =    -254.37323739 Ry
     estimated scf accuracy    <       0.00002929 Ry

     total magnetization       =     2.26 Bohr mag/cell
     absolute magnetization    =     2.39 Bohr mag/cell

     iteration #  9     ecut=    90.00 Ry     beta= 0.20
     Davidson diagonalization with overlap

---- Real-time Memory Report at c_bands before calling an iterative solver
           338 MiB given to the printing process from OS
           182 MiB allocation reported by mallinfo(arena+hblkhd)
        458184 MiB available memory on the node where the printing process lives
------------------
     ethr =  1.83E-07,  avg # of iterations =  3.0

     negative rho (up, down):  0.000E+00 3.078E-05

     total cpu time spent up to now is        8.1 secs

     total energy              =    -254.37326388 Ry
     estimated scf accuracy    <       0.00006931 Ry

     total magnetization       =     2.25 Bohr mag/cell
     absolute magnetization    =     2.37 Bohr mag/cell

     iteration # 10     ecut=    90.00 Ry     beta= 0.20
     Davidson diagonalization with overlap

---- Real-time Memory Report at c_bands before calling an iterative solver
           338 MiB given to the printing process from OS
           182 MiB allocation reported by mallinfo(arena+hblkhd)
        458184 MiB available memory on the node where the printing process lives
------------------
     ethr =  1.83E-07,  avg # of iterations =  1.6

     negative rho (up, down):  0.000E+00 2.992E-05

     total cpu time spent up to now is        8.8 secs

     total energy              =    -254.37328183 Ry
     estimated scf accuracy    <       0.00000874 Ry

     total magnetization       =     2.26 Bohr mag/cell
     absolute magnetization    =     2.38 Bohr mag/cell

     iteration # 11     ecut=    90.00 Ry     beta= 0.20
     Davidson diagonalization with overlap

---- Real-time Memory Report at c_bands before calling an iterative solver
           338 MiB given to the printing process from OS
           182 MiB allocation reported by mallinfo(arena+hblkhd)
        458185 MiB available memory on the node where the printing process lives
------------------
     ethr =  5.46E-08,  avg # of iterations =  2.0

     negative rho (up, down):  0.000E+00 3.005E-05

     total cpu time spent up to now is        9.4 secs

     total energy              =    -254.37329320 Ry
     estimated scf accuracy    <       0.00000278 Ry

     total magnetization       =     2.25 Bohr mag/cell
     absolute magnetization    =     2.38 Bohr mag/cell

     iteration # 12     ecut=    90.00 Ry     beta= 0.20
     Davidson diagonalization with overlap

---- Real-time Memory Report at c_bands before calling an iterative solver
           338 MiB given to the printing process from OS
           182 MiB allocation reported by mallinfo(arena+hblkhd)
        458184 MiB available memory on the node where the printing process lives
------------------
     ethr =  1.74E-08,  avg # of iterations =  1.4

     negative rho (up, down):  0.000E+00 3.013E-05

     total cpu time spent up to now is       10.0 secs

     total energy              =    -254.37329552 Ry
     estimated scf accuracy    <       0.00000031 Ry

     total magnetization       =     2.25 Bohr mag/cell
     absolute magnetization    =     2.38 Bohr mag/cell

     iteration # 13     ecut=    90.00 Ry     beta= 0.20
     Davidson diagonalization with overlap

---- Real-time Memory Report at c_bands before calling an iterative solver
           338 MiB given to the printing process from OS
           182 MiB allocation reported by mallinfo(arena+hblkhd)
        458184 MiB available memory on the node where the printing process lives
------------------
     ethr =  1.97E-09,  avg # of iterations =  3.1

     negative rho (up, down):  0.000E+00 3.009E-05

     total cpu time spent up to now is       10.7 secs

     total energy              =    -254.37329661 Ry
     estimated scf accuracy    <       0.00000001 Ry

     total magnetization       =     2.25 Bohr mag/cell
     absolute magnetization    =     2.38 Bohr mag/cell

     iteration # 14     ecut=    90.00 Ry     beta= 0.20
     Davidson diagonalization with overlap

---- Real-time Memory Report at c_bands before calling an iterative solver
           338 MiB given to the printing process from OS
           182 MiB allocation reported by mallinfo(arena+hblkhd)
        458180 MiB available memory on the node where the printing process lives
------------------
     ethr =  8.35E-11,  avg # of iterations =  4.1

     negative rho (up, down):  0.000E+00 3.008E-05

     total cpu time spent up to now is       11.4 secs

     total energy              =    -254.37329729 Ry
     estimated scf accuracy    <       0.00000004 Ry

     total magnetization       =     2.25 Bohr mag/cell
     absolute magnetization    =     2.38 Bohr mag/cell

     iteration # 15     ecut=    90.00 Ry     beta= 0.20
     Davidson diagonalization with overlap

---- Real-time Memory Report at c_bands before calling an iterative solver
           338 MiB given to the printing process from OS
           182 MiB allocation reported by mallinfo(arena+hblkhd)
        458184 MiB available memory on the node where the printing process lives
------------------
     ethr =  8.35E-11,  avg # of iterations =  1.1

     negative rho (up, down):  0.000E+00 3.007E-05

     total cpu time spent up to now is       12.1 secs

     total energy              =    -254.37329771 Ry
     estimated scf accuracy    <       0.00000002 Ry

     total magnetization       =     2.25 Bohr mag/cell
     absolute magnetization    =     2.38 Bohr mag/cell

     iteration # 16     ecut=    90.00 Ry     beta= 0.20
     Davidson diagonalization with overlap

---- Real-time Memory Report at c_bands before calling an iterative solver
           338 MiB given to the printing process from OS
           182 MiB allocation reported by mallinfo(arena+hblkhd)
        458183 MiB available memory on the node where the printing process lives
------------------
     ethr =  8.35E-11,  avg # of iterations =  2.5

     negative rho (up, down):  0.000E+00 3.007E-05

     total cpu time spent up to now is       12.8 secs

     total energy              =    -254.37329799 Ry
     estimated scf accuracy    <       0.00000001 Ry

     total magnetization       =     2.25 Bohr mag/cell
     absolute magnetization    =     2.38 Bohr mag/cell

     iteration # 17     ecut=    90.00 Ry     beta= 0.20
     Davidson diagonalization with overlap

---- Real-time Memory Report at c_bands before calling an iterative solver
           338 MiB given to the printing process from OS
           182 MiB allocation reported by mallinfo(arena+hblkhd)
        458182 MiB available memory on the node where the printing process lives
------------------
     ethr =  7.86E-11,  avg # of iterations =  1.0

     negative rho (up, down):  0.000E+00 3.007E-05

     total cpu time spent up to now is       13.6 secs

     total energy              =    -254.37329815 Ry
     estimated scf accuracy    <          6.4E-09 Ry

     total magnetization       =     2.25 Bohr mag/cell
     absolute magnetization    =     2.38 Bohr mag/cell

     iteration # 18     ecut=    90.00 Ry     beta= 0.20
     Davidson diagonalization with overlap

---- Real-time Memory Report at c_bands before calling an iterative solver
           338 MiB given to the printing process from OS
           182 MiB allocation reported by mallinfo(arena+hblkhd)
        458183 MiB available memory on the node where the printing process lives
------------------
     ethr =  4.00E-11,  avg # of iterations =  1.4

     negative rho (up, down):  0.000E+00 3.006E-05

     total cpu time spent up to now is       14.2 secs

     total energy              =    -254.37329826 Ry
     estimated scf accuracy    <          2.9E-10 Ry

     total magnetization       =     2.25 Bohr mag/cell
     absolute magnetization    =     2.38 Bohr mag/cell

     iteration # 19     ecut=    90.00 Ry     beta= 0.20
     Davidson diagonalization with overlap

---- Real-time Memory Report at c_bands before calling an iterative solver
           338 MiB given to the printing process from OS
           182 MiB allocation reported by mallinfo(arena+hblkhd)
        458183 MiB available memory on the node where the printing process lives
------------------
     ethr =  1.84E-12,  avg # of iterations =  2.6

     negative rho (up, down):  0.000E+00 3.006E-05

     total cpu time spent up to now is       15.1 secs

     total energy              =    -254.37329833 Ry
     estimated scf accuracy    <          1.5E-10 Ry

     total magnetization       =     2.25 Bohr mag/cell
     absolute magnetization    =     2.38 Bohr mag/cell

     iteration # 20     ecut=    90.00 Ry     beta= 0.20
     Davidson diagonalization with overlap

---- Real-time Memory Report at c_bands before calling an iterative solver
           338 MiB given to the printing process from OS
           182 MiB allocation reported by mallinfo(arena+hblkhd)
        458184 MiB available memory on the node where the printing process lives
------------------
     ethr =  9.21E-13,  avg # of iterations =  2.0

     negative rho (up, down):  0.000E+00 3.005E-05

     Magnetic moment per site  (integrated on atomic sphere of radius R)
     atom   1 (R=0.357)  charge= 14.4214  magn=  2.3063

     total cpu time spent up to now is       15.9 secs

     End of self-consistent calculation

 ------ SPIN UP ------------


          k = 0.0000 0.0000 0.0000 (  1157 PWs)   bands (ev):

   -70.7002 -36.5320 -36.5320 -36.5320   9.1245  15.1869  15.1869  15.1869
    16.3314  16.3314  41.9788  41.9788

     occupation numbers 
     1.0000   1.0000   1.0000   1.0000   1.0000   1.0000   1.0000   1.0000
     1.0000   1.0000   0.0000   0.0000

          k = 0.0000-0.0625 0.0625 (  1145 PWs)   bands (ev):

   -70.6976 -36.5459 -36.5367 -36.5320   9.2819  15.1450  15.1838  15.2699
    16.2899  16.3348  40.8886  41.7296

     occupation numbers 
     1.0000   1.0000   1.0000   1.0000   1.0000   1.0000   1.0000   1.0000
     1.0000   1.0000   0.0000   0.0000

          k = 0.0000-0.1250 0.1250 (  1141 PWs)   bands (ev):

   -70.6904 -36.5856 -36.5500 -36.5319   9.7423  15.0269  15.1584  15.5111
    16.2015  16.3457  38.5050  40.8575

     occupation numbers 
     1.0000   1.0000   1.0000   1.0000   1.0000   1.0000   1.0000   1.0000
     1.0000   1.0000   0.0000   0.0000

          k = 0.0000-0.1875 0.1875 (  1139 PWs)   bands (ev):

   -70.6796 -36.6447 -36.5699 -36.5318  10.4628  14.8535  15.0886  15.8866
    16.1495  16.3660  35.6775  39.5487

     occupation numbers 
     1.0000   1.0000   1.0000   1.0000   1.0000   1.0000   1.0000   1.0000
     1.0000   1.0000   0.0000   0.0000

          k = 0.0000-0.2500 0.2500 (  1134 PWs)   bands (ev):

   -70.6668 -36.7138 -36.5933 -36.5317  11.3383  14.6542  15.0466  16.1825
    16.3549  16.3960  32.7597  38.2023

     occupation numbers 
     1.0000   1.0000   1.0000   1.0000   1.0000   1.0000   1.0000   1.0000
     1.0000   1.0000   0.0000   0.0000

          k = 0.0000-0.3125 0.3125 (  1144 PWs)   bands (ev):

   -70.6540 -36.7826 -36.6166 -36.5316  12.1291  14.4600  15.2837  16.2808
    16.4330  16.8556  29.9342  37.0330

     occupation numbers 
     1.0000   1.0000   1.0000   1.0000   1.0000   1.0000   1.0000   1.0000
     1.0000   1.0000   0.0000   0.0000

          k = 0.0000-0.3750 0.3750 (  1148 PWs)   bands (ev):

   -70.6431 -36.8405 -36.6363 -36.5315  12.5449  14.2992  15.9975  16.4700
    16.4715  17.3105  27.3563  36.1423

     occupation numbers 
     1.0000   1.0000   1.0000   1.0000   1.0000   1.0000   1.0000   1.0000
     1.0000   0.9309   0.0000   0.0000

          k = 0.0000-0.4375 0.4375 (  1148 PWs)   bands (ev):

   -70.6359 -36.8790 -36.6494 -36.5315  12.6491  14.1936  16.3496  16.4978
    17.3066  17.6330  25.2962  35.5865

     occupation numbers 
     1.0000   1.0000   1.0000   1.0000   1.0000   1.0000   1.0000   1.0000
     0.9454   0.0025   0.0000   0.0000

          k = 0.0000 0.5000-0.5000 (  1148 PWs)   bands (ev):

   -70.6333 -36.8925 -36.6540 -36.5314  12.6588  14.1569  16.3951  16.5081
    17.7502  17.8833  24.4060  35.3977

     occupation numbers 
     1.0000   1.0000   1.0000   1.0000   1.0000   1.0000   1.0000   1.0000
     0.0000   0.0000   0.0000   0.0000

          k =-0.0625-0.0625 0.1250 (  1139 PWs)   bands (ev):

   -70.6928 -36.5734 -36.5415 -36.5354   9.5912  15.0910  15.1319  15.4444
    16.2174  16.3485  39.4956  40.4055

     occupation numbers 
     1.0000   1.0000   1.0000   1.0000   1.0000   1.0000   1.0000   1.0000
     1.0000   1.0000   0.0000   0.0000

          k =-0.0625-0.1250 0.1875 (  1146 PWs)   bands (ev):

   -70.6837 -36.6222 -36.5573 -36.5368  10.1845  14.9495  15.0650  15.7681
    16.1319  16.3777  37.1088  39.0043

     occupation numbers 
     1.0000   1.0000   1.0000   1.0000   1.0000   1.0000   1.0000   1.0000
     1.0000   1.0000   0.0000   0.0000

          k =-0.0625-0.1875 0.2500 (  1141 PWs)   bands (ev):

   -70.6719 -36.6847 -36.5802 -36.5370  10.9955  14.7590  14.9779  16.1107
    16.2148  16.4165  34.2731  37.7470

     occupation numbers 
     1.0000   1.0000   1.0000   1.0000   1.0000   1.0000   1.0000   1.0000
     1.0000   1.0000   0.0000   0.0000

          k =-0.0625-0.2500 0.3125 (  1136 PWs)   bands (ev):

   -70.6591 -36.7515 -36.6055 -36.5371  11.8639  14.5596  15.0003  16.1823
    16.4588  16.7385  31.3968  36.6211

     occupation numbers 
     1.0000   1.0000   1.0000   1.0000   1.0000   1.0000   1.0000   1.0000
     1.0000   1.0000   0.0000   0.0000

          k =-0.0625-0.3125 0.3750 (  1140 PWs)   bands (ev):

   -70.6473 -36.8129 -36.6288 -36.5371  12.4828  14.3825  15.3911  16.3078
    16.5261  17.3007  28.6706  35.6934

     occupation numbers 
     1.0000   1.0000   1.0000   1.0000   1.0000   1.0000   1.0000   1.0000
     1.0000   0.9658   0.0000   0.0000

          k =-0.0625-0.3750 0.4375 (  1145 PWs)   bands (ev):

   -70.6382 -36.8596 -36.6467 -36.5371  12.7032  14.2511  15.9991  16.4023
    16.7849  17.9125  26.2869  35.0300

     occupation numbers 
     1.0000   1.0000   1.0000   1.0000   1.0000   1.0000   1.0000   1.0000
     1.0000   0.0000   0.0000   0.0000

          k =-0.0625 0.5625-0.5000 (  1144 PWs)   bands (ev):

   -70.6333 -36.8847 -36.6564 -36.5371  12.7348  14.1813  16.2719  16.3967
    17.1849  18.5582  24.6699  34.6828

     occupation numbers 
     1.0000   1.0000   1.0000   1.0000   1.0000   1.0000   1.0000   1.0000
     1.0696   0.0000   0.0000   0.0000

          k =-0.1250-0.1250 0.2500 (  1146 PWs)   bands (ev):

   -70.6737 -36.6738 -36.5704 -36.5447  10.8771  14.8509  14.8867  16.0691
    16.1858  16.4392  35.4918  36.6110

     occupation numbers 
     1.0000   1.0000   1.0000   1.0000   1.0000   1.0000   1.0000   1.0000
     1.0000   1.0000   0.0000   0.0000

          k =-0.1250-0.1875 0.3125 (  1140 PWs)   bands (ev):

   -70.6619 -36.7315 -36.5945 -36.5483  11.7221  14.6562  14.7866  16.0824
    16.4889  16.7459  32.9919  35.0464

     occupation numbers 
     1.0000   1.0000   1.0000   1.0000   1.0000   1.0000   1.0000   1.0000
     1.0000   1.0000   0.0000   0.0000

          k =-0.1250-0.2500 0.3750 (  1145 PWs)   bands (ev):

   -70.6501 -36.7872 -36.6223 -36.5497  12.4914  14.4632  14.8697  16.1752
    16.5576  17.4032  30.2136  34.0001

     occupation numbers 
     1.0000   1.0000   1.0000   1.0000   1.0000   1.0000   1.0000   1.0000
     1.0000   0.4605   0.0000   0.0000

          k =-0.1250-0.3125 0.4375 (  1144 PWs)   bands (ev):

   -70.6400 -36.8335 -36.6471 -36.5503  12.8804  14.3232  15.2616  16.2998
    16.6710  18.2016  27.6114  33.2231

     occupation numbers 
     1.0000   1.0000   1.0000   1.0000   1.0000   1.0000   1.0000   1.0000
     1.0000   0.0000   0.0000   0.0000

          k =-0.1250 0.6250-0.5000 (  1150 PWs)   bands (ev):

   -70.6333 -36.8640 -36.6640 -36.5507  12.9547  14.2370  15.6667  16.3612
    16.8878  19.1451  25.4651  32.7297

     occupation numbers 
     1.0000   1.0000   1.0000   1.0000   1.0000   1.0000   1.0000   1.0000
     1.0000   0.0000   0.0000   0.0000

          k =-0.1250 0.5625-0.4375 (  1145 PWs)   bands (ev):

   -70.6310 -36.8746 -36.6700 -36.5507  12.9535  14.2075  15.8076  16.3672
    17.0121  19.7186  24.4803  32.5591

     occupation numbers 
     1.0000   1.0000   1.0000   1.0000   1.0000   1.0000   1.0000   1.0000
     1.0018   0.0000   0.0000   0.0000

          k =-0.1875-0.1875 0.3750 (  1140 PWs)   bands (ev):

   -70.6511 -36.7764 -36.6187 -36.5572  12.5086  14.4773  14.6983  16.1137
    16.5679  17.4490  31.6275  32.4542

     occupation numbers 
     1.0000   1.0000   1.0000   1.0000   1.0000   1.0000   1.0000   1.0000
     1.0000   0.2468   0.0000   0.0000

          k =-0.1875-0.2500 0.4375 (  1145 PWs)   bands (ev):

   -70.6410 -36.8134 -36.6490 -36.5617  13.0906  14.3214  14.7963  16.2092
    16.6449  18.3551  29.2054  31.2385

     occupation numbers 
     1.0000   1.0000   1.0000   1.0000   1.0000   1.0000   1.0000   1.0000
     1.0000   0.0000   0.0000   0.0000

          k =-0.1875 0.6875-0.5000 (  1148 PWs)   bands (ev):

   -70.6333 -36.8389 -36.6761 -36.5639  13.2774  14.2593  15.0566  16.3205
    16.7537  19.4912  26.7511  30.5789

     occupation numbers 
     1.0000   1.0000   1.0000   1.0000   1.0000   1.0000   1.0000   1.0000
     1.0000   0.0000   0.0000   0.0000

          k =-0.1875 0.6250-0.4375 (  1146 PWs)   bands (ev):

   -70.6292 -36.8517 -36.6921 -36.5648  13.2792  14.2383  15.2490  16.3759
    16.8696  20.6397  24.9072  30.2410

     occupation numbers 
     1.0000   1.0000   1.0000   1.0000   1.0000   1.0000   1.0000   1.0000
     1.0000   0.0000   0.0000   0.0000

          k =-0.2500 0.7500-0.5000 (  1157 PWs)   bands (ev):

   -70.6333 -36.8265 -36.6835 -36.5692  13.5001  14.1967  14.8069  16.2995
    16.7108  19.6014  28.1047  28.9281

     occupation numbers 
     1.0000   1.0000   1.0000   1.0000   1.0000   1.0000   1.0000   1.0000
     1.0000   0.0000   0.0000   0.0000

          k =-0.2500 0.6875-0.4375 (  1152 PWs)   bands (ev):

   -70.6282 -36.8277 -36.7154 -36.5728  13.6273  14.2085  14.8247  16.4091
    16.7579  21.0833  26.0275  28.1670

     occupation numbers 
     1.0000   1.0000   1.0000   1.0000   1.0000   1.0000   1.0000   1.0000
     1.0000   0.0000   0.0000   0.0000

          k =-0.2500 0.6250-0.3750 (  1152 PWs)   bands (ev):

   -70.6264 -36.8254 -36.7295 -36.5739  13.6298  14.2477  14.8263  16.4575
    16.7782  22.1326  24.7050  27.9784

     occupation numbers 
     1.0000   1.0000   1.0000   1.0000   1.0000   1.0000   1.0000   1.0000
     1.0000   0.0000   0.0000   0.0000

          k =-0.3125 0.6875-0.3750 (  1158 PWs)   bands (ev):

   -70.6254 -36.8024 -36.7567 -36.5768  13.8316  14.2785  14.5708  16.5401
    16.6924  22.8668  24.9384  26.6816

     occupation numbers 
     1.0000   1.0000   1.0000   1.0000   1.0000   1.0000   1.0000   1.0000
     1.0000   0.0000   0.0000   0.0000

          k = 0.0000 0.0000 0.1250 (  1133 PWs)   bands (ev):

   -70.6951 -36.5502 -36.5414 -36.5414   9.4378  15.1863  15.1863  15.2713
    16.1957  16.3846  40.2431  41.5512

     occupation numbers 
     1.0000   1.0000   1.0000   1.0000   1.0000   1.0000   1.0000   1.0000
     1.0000   1.0000   0.0000   0.0000

          k = 0.0000-0.0625 0.1875 (  1137 PWs)   bands (ev):

   -70.6880 -36.5866 -36.5548 -36.5437   9.8930  15.0959  15.1749  15.4893
    16.0553  16.4319  38.4178  40.5029

     occupation numbers 
     1.0000   1.0000   1.0000   1.0000   1.0000   1.0000   1.0000   1.0000
     1.0000   1.0000   0.0000   0.0000

          k = 0.0000-0.1250 0.2500 (  1141 PWs)   bands (ev):

   -70.6772 -36.6446 -36.5748 -36.5435  10.6043  14.9298  15.1062  15.8642
    15.9750  16.4786  35.7600  39.1261

     occupation numbers 
     1.0000   1.0000   1.0000   1.0000   1.0000   1.0000   1.0000   1.0000
     1.0000   1.0000   0.0000   0.0000

          k = 0.0000-0.1875 0.3125 (  1138 PWs)   bands (ev):

   -70.6646 -36.7127 -36.5983 -36.5430  11.4660  14.7366  15.0185  16.0285
    16.3344  16.5360  32.8699  37.8522

     occupation numbers 
     1.0000   1.0000   1.0000   1.0000   1.0000   1.0000   1.0000   1.0000
     1.0000   1.0000   0.0000   0.0000

          k = 0.0000-0.2500 0.3750 (  1140 PWs)   bands (ev):

   -70.6519 -36.7804 -36.6217 -36.5424  12.2424  14.5479  15.1208  16.1898
    16.6502  16.8382  30.0418  36.7687

     occupation numbers 
     1.0000   1.0000   1.0000   1.0000   1.0000   1.0000   1.0000   1.0000
     1.0000   1.0000   0.0000   0.0000

          k = 0.0000-0.3125 0.4375 (  1146 PWs)   bands (ev):

   -70.6412 -36.8375 -36.6415 -36.5420  12.6474  14.3914  15.5140  16.3272
    17.0739  17.2966  27.4477  35.9437

     occupation numbers 
     1.0000   1.0000   1.0000   1.0000   1.0000   1.0000   1.0000   1.0000
     1.0102   0.9791   0.0000   0.0000

          k = 0.0000-0.3750 0.5000 (  1145 PWs)   bands (ev):

   -70.6340 -36.8754 -36.6547 -36.5416  12.7433  14.2885  15.8564  16.3413
    17.6220  17.9660  25.3516  35.4279

     occupation numbers 
     1.0000   1.0000   1.0000   1.0000   1.0000   1.0000   1.0000   1.0000
     0.0036   0.0000   0.0000   0.0000

          k = 0.0000 0.5625-0.4375 (  1148 PWs)   bands (ev):

   -70.6314 -36.8887 -36.6594 -36.5416  12.7499  14.2527  15.9786  16.3219
    17.7403  18.5289  24.4275  35.2524

     occupation numbers 
     1.0000   1.0000   1.0000   1.0000   1.0000   1.0000   1.0000   1.0000
     0.0000   0.0000   0.0000   0.0000

          k =-0.0625-0.0625 0.2500 (  1143 PWs)   bands (ev):

   -70.6791 -36.6269 -36.5689 -36.5533  10.4705  15.0572  15.1035  15.7489
    15.8992  16.5069  36.8777  38.3223

     occupation numbers 
     1.0000   1.0000   1.0000   1.0000   1.0000   1.0000   1.0000   1.0000
     1.0000   1.0000   0.0000   0.0000

          k =-0.0625-0.1250 0.3125 (  1142 PWs)   bands (ev):

   -70.6675 -36.6853 -36.5910 -36.5559  11.2552  14.8970  14.9913  15.8655
    16.1761  16.5908  34.4454  36.6057

     occupation numbers 
     1.0000   1.0000   1.0000   1.0000   1.0000   1.0000   1.0000   1.0000
     1.0000   1.0000   0.0000   0.0000

          k =-0.0625-0.1875 0.3750 (  1141 PWs)   bands (ev):

   -70.6550 -36.7492 -36.6165 -36.5561  12.0897  14.6939  14.9176  15.9876
    16.5897  16.8202  31.6130  35.4325

     occupation numbers 
     1.0000   1.0000   1.0000   1.0000   1.0000   1.0000   1.0000   1.0000
     1.0000   1.0000   0.0000   0.0000

          k =-0.0625-0.2500 0.4375 (  1144 PWs)   bands (ev):

   -70.6434 -36.8082 -36.6402 -36.5557  12.6832  14.5326  15.0350  16.1739
    16.8353  17.4316  28.8734  34.5142

     occupation numbers 
     1.0000   1.0000   1.0000   1.0000   1.0000   1.0000   1.0000   1.0000
     1.0000   0.3203   0.0000   0.0000

          k =-0.0625-0.3125 0.5000 (  1143 PWs)   bands (ev):

   -70.6345 -36.8532 -36.6583 -36.5552  12.8870  14.4194  15.3198  16.2627
    17.2124  18.2881  26.4437  33.8537

     occupation numbers 
     1.0000   1.0000   1.0000   1.0000   1.0000   1.0000   1.0000   1.0000
     1.0821   0.0000   0.0000   0.0000

          k =-0.0625 0.6250-0.4375 (  1145 PWs)   bands (ev):

   -70.6297 -36.8775 -36.6681 -36.5549  12.9076  14.3588  15.5188  16.2634
    17.4837  19.2121  24.7401  33.5025

     occupation numbers 
     1.0000   1.0000   1.0000   1.0000   1.0000   1.0000   1.0000   1.0000
     0.1346   0.0000   0.0000   0.0000

          k =-0.1250 0.1250 0.1250 (  1142 PWs)   bands (ev):

   -70.6860 -36.6162 -36.5418 -36.5418  10.0403  14.9893  14.9893  15.7614
    16.2690  16.2690  38.2977  38.2977

     occupation numbers 
     1.0000   1.0000   1.0000   1.0000   1.0000   1.0000   1.0000   1.0000
     1.0000   1.0000   0.0000   0.0000

          k =-0.1250-0.1250 0.3750 (  1134 PWs)   bands (ev):

   -70.6561 -36.7354 -36.6138 -36.5645  12.0374  14.7008  14.9142  15.8712
    16.5484  16.8617  33.0016  33.9239

     occupation numbers 
[...]
    19.9703  22.1670  25.9261  33.0100

     occupation numbers 
     1.0000   1.0000   1.0000   1.0000   1.0000   1.0000   1.0000   0.0000
     0.0000   0.0000   0.0000   0.0000

          k =-0.0625-0.0625 0.5000 (  1150 PWs)   bands (ev):

   -67.7853 -33.9578 -33.8601 -33.8290  13.5135  16.6405  17.3013  17.7462
    18.7074  20.0333  33.1500  33.6070

     occupation numbers 
     1.0000   1.0000   1.0000   1.0000   1.0000   1.0000   0.9640   0.0000
     0.0000   0.0000   0.0000   0.0000

          k =-0.0625-0.1250 0.5625 (  1151 PWs)   bands (ev):

   -67.7736 -34.0072 -33.8893 -33.8307  14.2555  16.2166  17.2226  18.0373
    19.1679  20.5579  30.6690  32.4556

     occupation numbers 
     1.0000   1.0000   1.0000   1.0000   1.0000   1.0000   1.0833   0.0000
     0.0000   0.0000   0.0000   0.0000

          k =-0.0625-0.1875 0.6250 (  1150 PWs)   bands (ev):

   -67.7647 -34.0477 -33.9115 -33.8291  14.7872  15.9428  17.0982  18.2523
    19.5651  21.5254  28.2328  31.7140

     occupation numbers 
     1.0000   1.0000   1.0000   1.0000   1.0000   1.0000   1.0179   0.0000
     0.0000   0.0000   0.0000   0.0000

          k =-0.0625 0.7500-0.3125 (  1156 PWs)   bands (ev):

   -67.7598 -34.0700 -33.9234 -33.8278  15.0152  15.8693  17.0053  18.3253
    19.8185  22.6870  26.3467  31.3034

     occupation numbers 
     1.0000   1.0000   1.0000   1.0000   1.0000   1.0000   1.0014   0.0000
     0.0000   0.0000   0.0000   0.0000

          k =-0.1250-0.1250 0.6250 (  1158 PWs)   bands (ev):

   -67.7640 -34.0313 -33.9259 -33.8348  14.8225  15.8673  17.1591  18.3243
    19.3884  21.5391  29.6675  30.0637

     occupation numbers 
     1.0000   1.0000   1.0000   1.0000   1.0000   1.0000   1.0523   0.0000
     0.0000   0.0000   0.0000   0.0000

          k =-0.1250 0.8125-0.3125 (  1152 PWs)   bands (ev):

   -67.7576 -34.0465 -33.9538 -33.8349  15.1950  15.6643  16.9890  18.5905
    19.5458  22.9123  27.5086  29.3446

     occupation numbers 
     1.0000   1.0000   1.0000   1.0000   1.0000   1.0000   1.0008   0.0000
     0.0000   0.0000   0.0000   0.0000

          k =-0.1250 0.7500-0.2500 (  1157 PWs)   bands (ev):

   -67.7553 -34.0514 -33.9642 -33.8346  15.2928  15.6444  16.8969  18.6811
    19.6185  23.9907  26.1246  29.1360

     occupation numbers 
     1.0000   1.0000   1.0000   1.0000   1.0000   1.0000   1.0000   0.0000
     0.0000   0.0000   0.0000   0.0000

          k =-0.1875 0.8125-0.2500 (  1154 PWs)   bands (ev):

   -67.7537 -34.0313 -33.9933 -33.8359  15.4661  15.5122  16.8032  18.9945
    19.3905  24.5920  26.5790  27.7040

     occupation numbers 
     1.0000   1.0000   1.0000   1.0000   1.0000   1.0000   1.0000   0.0000
     0.0000   0.0000   0.0000   0.0000

          k = 0.6250-0.6250 0.3750 (  1157 PWs)   bands (ev):

   -67.7816 -34.0319 -33.8329 -33.8329  15.1512  15.7475  15.7475  19.3574
    19.3574  22.2069  29.5931  29.5931

     occupation numbers 
     1.0000   1.0000   1.0000   1.0000   1.0000   1.0000   1.0000   0.0000
     0.0000   0.0000   0.0000   0.0000

          k = 0.5625-0.5625 0.3750 (  1155 PWs)   bands (ev):

   -67.7778 -34.0104 -33.8800 -33.8367  15.4403  15.6801  15.8728  19.3790
    19.4363  23.4780  27.5741  29.1803

     occupation numbers 
     1.0000   1.0000   1.0000   1.0000   1.0000   1.0000   1.0000   0.0000
     0.0000   0.0000   0.0000   0.0000

          k = 0.5000-0.5000 0.3750 (  1154 PWs)   bands (ev):

   -67.7765 -33.9935 -33.9059 -33.8381  15.4324  15.6588  16.0354  19.3892
    19.4612  24.4904  26.2391  29.0413

     occupation numbers 
     1.0000   1.0000   1.0000   1.0000   1.0000   1.0000   1.0000   0.0000
     0.0000   0.0000   0.0000   0.0000

          k = 0.5000-0.5625 0.4375 (  1150 PWs)   bands (ev):

   -67.7762 -33.9691 -33.9129 -33.8592  15.5728  15.7304  15.8418  19.4339
    19.4554  25.0114  26.8277  27.7725

     occupation numbers 
     1.0000   1.0000   1.0000   1.0000   1.0000   1.0000   1.0000   0.0000
     0.0000   0.0000   0.0000   0.0000

          k = 0.0000 0.0000 0.5000 (  1136 PWs)   bands (ev):

   -67.7857 -33.9274 -33.8579 -33.8579  13.4278  16.8238  17.5302  17.5302
    18.4380  20.0168  34.6131  34.6131

     occupation numbers 
     1.0000   1.0000   1.0000   1.0000   1.0000   1.0000   0.0495   0.0495
     0.0000   0.0000   0.0000   0.0000

          k = 0.0000-0.0625 0.5625 (  1156 PWs)   bands (ev):

   -67.7734 -33.9706 -33.8857 -33.8700  14.1239  16.3382  17.6004  17.8205
    18.8390  20.4182  32.2075  33.3318

     occupation numbers 
     1.0000   1.0000   1.0000   1.0000   1.0000   1.0000   0.0072   0.0000
     0.0000   0.0000   0.0000   0.0000

          k = 0.0000-0.1250 0.6250 (  1153 PWs)   bands (ev):

   -67.7630 -34.0192 -33.9092 -33.8680  14.6746  15.9259  17.5489  18.0854
    19.3525  21.2170  29.6401  32.2904

     occupation numbers 
     1.0000   1.0000   1.0000   1.0000   1.0000   1.0000   0.0311   0.0000
     0.0000   0.0000   0.0000   0.0000

          k = 0.0000-0.1875 0.6875 (  1151 PWs)   bands (ev):

   -67.7560 -34.0532 -33.9249 -33.8649  15.0019  15.6783  17.4929  18.1984
    19.7595  22.4573  27.3472  31.5907

     occupation numbers 
     1.0000   1.0000   1.0000   1.0000   1.0000   1.0000   0.1122   0.0000
     0.0000   0.0000   0.0000   0.0000

          k = 0.0000 0.7500-0.2500 (  1152 PWs)   bands (ev):

   -67.7536 -34.0653 -33.9304 -33.8636  15.0971  15.6094  17.4712  18.2197
    19.9146  23.4049  26.0598  31.3409

     occupation numbers 
     1.0000   1.0000   1.0000   1.0000   1.0000   1.0000   0.1698   0.0000
     0.0000   0.0000   0.0000   0.0000

          k =-0.0625-0.0625 0.6250 (  1156 PWs)   bands (ev):

   -67.7624 -33.9996 -33.9173 -33.8824  14.6288  15.9312  17.7071  18.1152
    19.1647  21.1297  31.0849  31.2841

     occupation numbers 
     1.0000   1.0000   1.0000   1.0000   1.0000   1.0000   0.0001   0.0000
     0.0000   0.0000   0.0000   0.0000

          k =-0.0625-0.1250 0.6875 (  1151 PWs)   bands (ev):

   -67.7540 -34.0301 -33.9426 -33.8821  14.9747  15.6004  17.6507  18.4086
    19.5216  22.3158  28.7551  30.3855

     occupation numbers 
     1.0000   1.0000   1.0000   1.0000   1.0000   1.0000   0.0013   0.0000
     0.0000   0.0000   0.0000   0.0000

          k =-0.0625 0.8125-0.2500 (  1153 PWs)   bands (ev):

   -67.7494 -34.0483 -33.9559 -33.8805  15.1520  15.4204  17.5925  18.5390
    19.7670  23.7871  26.6732  29.9274

     occupation numbers 
     1.0000   1.0000   1.0000   1.0000   1.0000   1.0000   0.0092   0.0000
     0.0000   0.0000   0.0000   0.0000

          k =-0.1250 0.8750-0.2500 (  1154 PWs)   bands (ev):

   -67.7480 -34.0329 -33.9774 -33.8833  15.1622  15.3647  17.5634  18.8598
    19.5718  23.8336  27.8782  28.4110

     occupation numbers 
     1.0000   1.0000   1.0000   1.0000   1.0000   1.0000   0.0211   0.0000
     0.0000   0.0000   0.0000   0.0000

          k =-0.1250 0.8125-0.1875 (  1160 PWs)   bands (ev):

   -67.7459 -34.0303 -33.9941 -33.8830  15.2366  15.2720  17.5159  19.0709
    19.5563  25.2320  26.3892  28.0283

     occupation numbers 
     1.0000   1.0000   1.0000   1.0000   1.0000   1.0000   0.0689   0.0000
     0.0000   0.0000   0.0000   0.0000

          k = 0.5000-0.5000 0.5000 (  1160 PWs)   bands (ev):

   -67.7758 -33.9151 -33.9151 -33.9151  15.7273  15.7273  15.7273  19.4679
    19.4679  26.6752  26.6752  26.6752

     occupation numbers 
     1.0000   1.0000   1.0000   1.0000   1.0000   1.0000   1.0000   0.0000
     0.0000   0.0000   0.0000   0.0000

          k = 0.0000 0.0000 0.6250 (  1152 PWs)   bands (ev):

   -67.7619 -33.9733 -33.9143 -33.9143  14.5580  15.9613  18.0349  18.0349
    18.9402  21.0027  31.9687  31.9687

     occupation numbers 
     1.0000   1.0000   1.0000   1.0000   1.0000   1.0000   0.0000   0.0000
     0.0000   0.0000   0.0000   0.0000

          k = 0.0000-0.0625 0.6875 (  1149 PWs)   bands (ev):

   -67.7520 -34.0033 -33.9384 -33.9238  14.8397  15.5836  18.1973  18.3314
    19.3065  21.9874  30.0525  30.8548

     occupation numbers 
     1.0000   1.0000   1.0000   1.0000   1.0000   1.0000   0.0000   0.0000
     0.0000   0.0000   0.0000   0.0000

          k = 0.0000-0.1250 0.7500 (  1152 PWs)   bands (ev):

   -67.7455 -34.0325 -33.9545 -33.9208  15.0049  15.3086  18.2114  18.5083
    19.6988  23.4191  27.8240  30.0993

     occupation numbers 
     1.0000   1.0000   1.0000   1.0000   1.0000   1.0000   0.0000   0.0000
     0.0000   0.0000   0.0000   0.0000

          k = 0.0000 0.8125-0.1875 (  1156 PWs)   bands (ev):

   -67.7432 -34.0434 -33.9601 -33.9191  15.0872  15.1820  18.2069  18.5594
    19.8592  24.6672  26.3036  29.8273

     occupation numbers 
     1.0000   1.0000   1.0000   1.0000   1.0000   1.0000   0.0000   0.0000
     0.0000   0.0000   0.0000   0.0000

          k =-0.0625-0.0625 0.7500 (  1154 PWs)   bands (ev):

   -67.7441 -34.0173 -33.9668 -33.9317  14.9415  15.2808  18.3036  18.7654
    19.5379  23.2641  29.0762  29.2414

     occupation numbers 
     1.0000   1.0000   1.0000   1.0000   1.0000   1.0000   0.0000   0.0000
     0.0000   0.0000   0.0000   0.0000

          k =-0.0625 0.8750-0.1875 (  1155 PWs)   bands (ev):

   -67.7398 -34.0286 -33.9838 -33.9305  15.0024  15.0910  18.3009  19.0280
    19.7209  24.8767  27.1417  28.6657

     occupation numbers 
     1.0000   1.0000   1.0000   1.0000   1.0000   1.0000   0.0000   0.0000
     0.0000   0.0000   0.0000   0.0000

          k =-0.1250 0.8750-0.1250 (  1156 PWs)   bands (ev):

   -67.7378 -34.0123 -34.0123 -33.9306  15.0058  15.0058  18.2899  19.4967
    19.4967  26.4625  26.4625  27.4204

     occupation numbers 
     1.0000   1.0000   1.0000   1.0000   1.0000   1.0000   0.0000   0.0000
     0.0000   0.0000   0.0000   0.0000

          k = 0.0000 0.0000 0.7500 (  1144 PWs)   bands (ev):

   -67.7428 -33.9975 -33.9630 -33.9630  14.8622  15.2539  18.7314  18.7314
    19.3735  23.0499  29.6663  29.6663

     occupation numbers 
     1.0000   1.0000   1.0000   1.0000   1.0000   1.0000   0.0000   0.0000
     0.0000   0.0000   0.0000   0.0000

          k = 0.0000-0.0625 0.8125 (  1155 PWs)   bands (ev):

   -67.7366 -34.0151 -33.9795 -33.9677  14.8538  15.0095  18.9223  19.0231
    19.6530  24.4787  28.1839  28.8468

     occupation numbers 
     1.0000   1.0000   1.0000   1.0000   1.0000   1.0000   0.0000   0.0000
     0.0000   0.0000   0.0000   0.0000

          k = 0.0000 0.8750-0.1250 (  1154 PWs)   bands (ev):

   -67.7344 -34.0247 -33.9852 -33.9658  14.8775  14.8918  18.9461  19.1214
    19.8124  25.8808  26.6766  28.5478

     occupation numbers 
     1.0000   1.0000   1.0000   1.0000   1.0000   1.0000   0.0000   0.0000
     0.0000   0.0000   0.0000   0.0000

          k =-0.0625 0.9375-0.1250 (  1156 PWs)   bands (ev):

   -67.7325 -34.0155 -34.0003 -33.9714  14.8057  14.8469  19.0215  19.4547
    19.7187  25.9522  27.5073  27.7291

     occupation numbers 
     1.0000   1.0000   1.0000   1.0000   1.0000   1.0000   0.0000   0.0000
     0.0000   0.0000   0.0000   0.0000

          k = 0.0000 0.0000 0.8750 (  1152 PWs)   bands (ev):

   -67.7306 -34.0062 -33.9961 -33.9961  14.7306  14.7941  19.4397  19.4397
    19.6668  25.6974  27.9671  27.9671

     occupation numbers 
     1.0000   1.0000   1.0000   1.0000   1.0000   1.0000   0.0000   0.0000
     0.0000   0.0000   0.0000   0.0000

          k = 0.0000 0.9375-0.0625 (  1154 PWs)   bands (ev):

   -67.7285 -34.0122 -34.0020 -33.9969  14.6956  14.7066  19.5358  19.5923
    19.7813  26.8779  27.0966  27.6409

     occupation numbers 
     1.0000   1.0000   1.0000   1.0000   1.0000   1.0000   0.0000   0.0000
     0.0000   0.0000   0.0000   0.0000

          k = 0.0000 0.0000-1.0000 (  1144 PWs)   bands (ev):

   -67.7264 -34.0078 -34.0078 -34.0078  14.6352  14.6352  19.7704  19.7704
    19.7704  27.3020  27.3020  27.3020

     occupation numbers 
     1.0000   1.0000   1.0000   1.0000   1.0000   1.0000   0.0000   0.0000
     0.0000   0.0000   0.0000   0.0000

     the Fermi energy is    17.4148 ev

!    total energy              =    -254.37329845 Ry
     estimated scf accuracy    <          1.1E-11 Ry
     smearing contrib. (-TS)   =       0.00008342 Ry
     internal energy E=F+TS    =    -254.37338188 Ry

     The total energy is F=E-TS. E is the sum of the following terms:
     one-electron contribution =    -114.31143105 Ry
     hartree contribution      =      66.63686341 Ry
     xc contribution           =     -34.80882105 Ry
     ewald contribution        =    -171.88999319 Ry

     total magnetization       =     2.25 Bohr mag/cell
     absolute magnetization    =     2.38 Bohr mag/cell

     convergence has been achieved in  20 iterations

     negative rho (up, down):  0.000E+00 3.005E-05

     Forces acting on atoms (cartesian axes, Ry/au):

     atom    1 type  1   force =     0.00000000    0.00000000    0.00000000
     The non-local contrib.  to forces
     atom    1 type  1   force =    -0.00000000    0.00000000    0.00000000
     The ionic contribution  to forces
     atom    1 type  1   force =    -0.00000000   -0.00000000   -0.00000000
     The local contribution  to forces
     atom    1 type  1   force =    -0.00000000   -0.00000000    0.00000000
     The core correction contribution to forces
     atom    1 type  1   force =    -0.00000000   -0.00000000    0.00000000
     The Hubbard contrib.    to forces
     atom    1 type  1   force =     0.00000000    0.00000000    0.00000000
     The SCF correction term to forces
     atom    1 type  1   force =     0.00000000   -0.00000000    0.00000000

     Total force =     0.000000     Total SCF correction =     0.000000


     Computing stress (Cartesian axis) and pressure


     negative rho (up, down):  0.000E+00 3.005E-05
          total   stress  (Ry/bohr**3)                   (kbar)     P=      -61.80
  -0.00042012   0.00000000  -0.00000000          -61.80        0.00       -0.00
   0.00000000  -0.00042012   0.00000000            0.00      -61.80        0.00
  -0.00000000   0.00000000  -0.00042012           -0.00        0.00      -61.80

     kinetic stress (kbar)  78576.71     -0.00      0.00
                               -0.00  78576.71     -0.00
                                0.00     -0.00  78576.71

     local   stress (kbar)  66181.40     -0.00     -0.00
                               -0.00  66181.40      0.00
                               -0.00      0.00  66181.40

     nonloc. stress (kbar) -61374.51     -0.00      0.00
                               -0.00 -61374.51     -0.00
                                0.00     -0.00 -61374.51

     hartree stress (kbar)  41044.32      0.00      0.00
                                0.00  41044.32     -0.00
                                0.00     -0.00  41044.32

     exc-cor stress (kbar)  -2500.10      0.00      0.00
                                0.00  -2500.10      0.00
                                0.00      0.00  -2500.10

     corecor stress (kbar) -16115.66      0.00      0.00
                                0.00 -16115.66     -0.00
                                0.00     -0.00 -16115.66

     ewald   stress (kbar)-105873.96      0.00      0.00
                                0.00-105873.96      0.00
                                0.00      0.00-105873.96

     hubbard stress (kbar)      0.00      0.00      0.00
                                0.00      0.00      0.00
                                0.00      0.00      0.00

     DFT-D   stress (kbar)      0.00      0.00      0.00
                                0.00      0.00      0.00
                                0.00      0.00      0.00

     XDM     stress (kbar)      0.00      0.00      0.00
                                0.00      0.00      0.00
                                0.00      0.00      0.00

     dft-nl  stress (kbar)      0.00      0.00      0.00
                                0.00      0.00      0.00
                                0.00      0.00      0.00

     TS-vdW  stress (kbar)      0.00      0.00      0.00
                                0.00      0.00      0.00
                                0.00      0.00      0.00

     MDB     stress (kbar)      0.00      0.00      0.00
                                0.00      0.00      0.00
                                0.00      0.00      0.00

     3D-RISM stress (kbar)      0.00      0.00      0.00
                                0.00      0.00      0.00
                                0.00      0.00      0.00


     Writing all to output data dir ./tmp/fe_bcc_fm.save/ :
     XML data file, charge density, pseudopotentials, collected wavefunctions

     init_run     :      0.49s CPU      0.59s WALL (       1 calls)
     electrons    :      7.96s CPU     14.52s WALL (       1 calls)
     forces       :      0.04s CPU      0.05s WALL (       1 calls)
     stress       :      0.07s CPU      0.10s WALL (       1 calls)

     Called by init_run:
     wfcinit      :      0.05s CPU      0.09s WALL (       1 calls)
     wfcinit:atom :      0.00s CPU      0.00s WALL (      19 calls)
     wfcinit:wfcr :      0.03s CPU      0.06s WALL (      19 calls)
     potinit      :      0.18s CPU      0.19s WALL (       1 calls)
     hinit0       :      0.23s CPU      0.27s WALL (       1 calls)

     Called by electrons:
     c_bands      :      6.55s CPU     12.66s WALL (      20 calls)
     sum_band     :      0.43s CPU      0.49s WALL (      20 calls)
     v_of_rho     :      0.50s CPU      0.68s WALL (      21 calls)
     v_h          :      0.01s CPU      0.01s WALL (      21 calls)
     v_xc         :      0.54s CPU      0.73s WALL (      23 calls)
     newd         :      0.18s CPU      0.20s WALL (      21 calls)
     mix_rho      :      0.03s CPU      0.04s WALL (      20 calls)

     Called by c_bands:
     init_us_2    :      0.03s CPU      0.03s WALL (     817 calls)
     cegterg      :      1.71s CPU      1.89s WALL (     380 calls)

     Called by sum_band:
     sum_band:wei :      0.02s CPU      0.02s WALL (      20 calls)
     sum_band:loo :      0.29s CPU      0.31s WALL (      20 calls)
     sum_band:buf :      0.00s CPU      0.00s WALL (     380 calls)
     sum_band:ini :      0.01s CPU      0.01s WALL (     380 calls)
     sum_band:cal :      0.02s CPU      0.02s WALL (     380 calls)
     sum_band:bec :      0.00s CPU      0.00s WALL (     380 calls)
     addusdens    :      0.05s CPU      0.06s WALL (      20 calls)
                                        0.00s GPU  (      20 calls)
     addusd:skk   :      0.00s CPU      0.00s WALL (      20 calls)
                                        0.00s GPU  (      20 calls)

     Called by *egterg:
     cdiaghg      :      0.18s CPU      0.22s WALL (    1364 calls)
     cegterg:over :      0.05s CPU      0.06s WALL (     984 calls)
     cegterg:upda :      0.01s CPU      0.02s WALL (     984 calls)
     cegterg:last :      0.02s CPU      0.02s WALL (     774 calls)
     h_psi        :      1.40s CPU      1.55s WALL (    1383 calls)
     s_psi        :      0.01s CPU      0.01s WALL (    1383 calls)
     g_psi        :      0.00s CPU      0.00s WALL (     984 calls)

     Called by h_psi:
     h_psi:calbec :      0.05s CPU      0.06s WALL (    1383 calls)
     vloc_psi     :      1.32s CPU      1.47s WALL (    1383 calls)
     add_vuspsi   :      0.02s CPU      0.02s WALL (    1383 calls)

     General routines
     calbec       :      0.07s CPU      0.08s WALL (    1858 calls)
     fft          :      0.31s CPU      0.42s WALL (     563 calls)
     ffts         :      0.15s CPU      0.15s WALL (      82 calls)
     fftw         :      1.28s CPU      1.41s WALL (   28608 calls)
     interpolate  :      0.16s CPU      0.16s WALL (      42 calls)

     Parallel routines

     PWSCF        :      8.73s CPU     17.15s WALL


   This run was terminated on:   5:50:18  11May2025            

=------------------------------------------------------------------------------=
   JOB DONE.
=------------------------------------------------------------------------------=
