
     Program PWSCF v.7.3.1 starts on 10May2025 at  7:33:20 

     This program is part of the open-source Quantum ESPRESSO suite
     for quantum simulation of materials; please cite
         "P. Giannozzi et al., J. Phys.:Condens. Matter 21 395502 (2009);
         "P. Giannozzi et al., J. Phys.:Condens. Matter 29 465901 (2017);
         "P. Giannozzi et al., J. Chem. Phys. 152 154105 (2020);
          URL http://www.quantum-espresso.org", 
     in publications or presentations arising from this work. More details at
     http://www.quantum-espresso.org/quote

     Parallel version (MPI & OpenMP), running on     256 processor cores
     Number of MPI processes:                16
     Threads/MPI process:                    16

     MPI processes distributed on     1 nodes
     394000 MiB available memory on the printing compute node when the environment starts

     Waiting for input...
     Reading input from standard input

     Current dimensions of program PWSCF are:
     Max number of different atomic species (ntypx) = 10
     Max number of k-points (npk) =  40000
     Max angular momentum in pseudopotentials (lmaxx) =  4

     K-points division:     npool     =       2
     R & G space division:  proc/nbgrp/npool/nimage =       8
     Subspace diagonalization in iterative solution of the eigenvalue problem:
     a serial algorithm will be used


     Parallelization info
     --------------------
     sticks:   dense  smooth     PW     G-vecs:    dense   smooth      PW
     Min         222      74     22                 5949     1147     199
     Max         223      75     23                 5951     1149     201
     Sum        1781     599    181                47597     9189    1601

     Using Slab Decomposition



     bravais-lattice index     =            3
     lattice parameter (alat)  =       5.4200  a.u.
     unit-cell volume          =      79.6100 (a.u.)^3
     number of atoms/cell      =            1
     number of atomic types    =            1
     number of electrons       =        16.00
     number of Kohn-Sham states=           12
     kinetic-energy cutoff     =      90.0000  Ry
     charge density cutoff     =    1080.0000  Ry
     scf convergence threshold =      1.0E-10
     mixing beta               =       0.2000
     number of iterations used =            8  plain     mixing
     Exchange-correlation= PBE
                           (   1   4   3   4   0   0   0)

     celldm(1)=   5.420000  celldm(2)=   0.000000  celldm(3)=   0.000000
     celldm(4)=   0.000000  celldm(5)=   0.000000  celldm(6)=   0.000000

     crystal axes: (cart. coord. in units of alat)
               a(1) = (   0.500000   0.500000   0.500000 )  
               a(2) = (  -0.500000   0.500000   0.500000 )  
               a(3) = (  -0.500000  -0.500000   0.500000 )  

     reciprocal axes: (cart. coord. in units 2 pi/alat)
               b(1) = (  1.000000  0.000000  1.000000 )  
               b(2) = ( -1.000000  1.000000  0.000000 )  
               b(3) = (  0.000000 -1.000000  1.000000 )  


     PseudoPot. # 1 for Fe read from file:
     ../../../pseudopotentials/Fe.pbe-spn-rrkjus_psl.0.2.1.UPF
     MD5 check sum: f9af58635850a145d9bd408d58feeb93
     Pseudo is Ultrasoft + core correction, Zval = 16.0
     Generated using "atomic" code by A. Dal Corso  v.5.0.2 svn rev. 9415
     Using radial grid of 1191 points,  6 beta functions with: 
                l(1) =   0
                l(2) =   0
                l(3) =   1
                l(4) =   1
                l(5) =   2
                l(6) =   2
     Q(r) pseudized with 0 coefficients 


     atomic species   valence    mass     pseudopotential
     Fe               16.00    55.84500     Fe( 1.00)

     Starting magnetic structure 
     atomic species   magnetization
     Fe              0.400

     48 Sym. Ops., with inversion, found


                                    s                        frac. trans.

      isym =  1     identity                                     

 cryst.   s( 1) = (     1          0          0      )
                  (     0          1          0      )
                  (     0          0          1      )

 cart.    s( 1) = (  1.0000000  0.0000000  0.0000000 )
                  (  0.0000000  1.0000000  0.0000000 )
                  (  0.0000000  0.0000000  1.0000000 )


      isym =  2     180 deg rotation - cart. axis [0,0,1]        

 cryst.   s( 2) = (     0          0          1      )
                  (     1         -1          1      )
                  (     1          0          0      )

 cart.    s( 2) = ( -1.0000000  0.0000000  0.0000000 )
                  (  0.0000000 -1.0000000  0.0000000 )
                  (  0.0000000  0.0000000  1.0000000 )


      isym =  3     180 deg rotation - cart. axis [0,1,0]        

 cryst.   s( 3) = (    -1          1         -1      )
                  (     0          0         -1      )
                  (     0         -1          0      )

 cart.    s( 3) = ( -1.0000000  0.0000000  0.0000000 )
                  (  0.0000000  1.0000000  0.0000000 )
                  (  0.0000000  0.0000000 -1.0000000 )


      isym =  4     180 deg rotation - cart. axis [1,0,0]        

 cryst.   s( 4) = (     0         -1          0      )
                  (    -1          0          0      )
                  (    -1          1         -1      )

 cart.    s( 4) = (  1.0000000  0.0000000  0.0000000 )
                  (  0.0000000 -1.0000000  0.0000000 )
                  (  0.0000000  0.0000000 -1.0000000 )


      isym =  5     180 deg rotation - cart. axis [1,1,0]        

 cryst.   s( 5) = (     0          0         -1      )
                  (     0         -1          0      )
                  (    -1          0          0      )

 cart.    s( 5) = (  0.0000000  1.0000000  0.0000000 )
                  (  1.0000000  0.0000000  0.0000000 )
                  (  0.0000000  0.0000000 -1.0000000 )


      isym =  6     180 deg rotation - cart. axis [1,-1,0]       

 cryst.   s( 6) = (    -1          0          0      )
                  (    -1          1         -1      )
                  (     0          0         -1      )

 cart.    s( 6) = (  0.0000000 -1.0000000  0.0000000 )
                  ( -1.0000000  0.0000000  0.0000000 )
                  (  0.0000000  0.0000000 -1.0000000 )


      isym =  7      90 deg rotation - cart. axis [0,0,-1]       

 cryst.   s( 7) = (     1         -1          1      )
                  (     1          0          0      )
                  (     0          1          0      )

 cart.    s( 7) = (  0.0000000  1.0000000  0.0000000 )
                  ( -1.0000000  0.0000000  0.0000000 )
                  (  0.0000000  0.0000000  1.0000000 )


      isym =  8      90 deg rotation - cart. axis [0,0,1]        

 cryst.   s( 8) = (     0          1          0      )
                  (     0          0          1      )
                  (     1         -1          1      )

 cart.    s( 8) = (  0.0000000 -1.0000000  0.0000000 )
                  (  1.0000000  0.0000000  0.0000000 )
                  (  0.0000000  0.0000000  1.0000000 )


      isym =  9     180 deg rotation - cart. axis [1,0,1]        

 cryst.   s( 9) = (     1         -1          1      )
                  (     0         -1          0      )
                  (     0          0         -1      )

 cart.    s( 9) = (  0.0000000  0.0000000  1.0000000 )
                  (  0.0000000 -1.0000000  0.0000000 )
                  (  1.0000000  0.0000000  0.0000000 )


      isym = 10     180 deg rotation - cart. axis [-1,0,1]       

 cryst.   s(10) = (    -1          0          0      )
                  (     0          0          1      )
                  (     0          1          0      )

 cart.    s(10) = (  0.0000000  0.0000000 -1.0000000 )
                  (  0.0000000 -1.0000000  0.0000000 )
                  ( -1.0000000  0.0000000  0.0000000 )


      isym = 11      90 deg rotation - cart. axis [0,1,0]        

 cryst.   s(11) = (     0          0         -1      )
                  (     1          0          0      )
                  (     1         -1          1      )

 cart.    s(11) = (  0.0000000  0.0000000  1.0000000 )
                  (  0.0000000  1.0000000  0.0000000 )
                  ( -1.0000000  0.0000000  0.0000000 )


      isym = 12      90 deg rotation - cart. axis [0,-1,0]       

 cryst.   s(12) = (     0          1          0      )
                  (    -1          1         -1      )
                  (    -1          0          0      )

 cart.    s(12) = (  0.0000000  0.0000000 -1.0000000 )
                  (  0.0000000  1.0000000  0.0000000 )
                  (  1.0000000  0.0000000  0.0000000 )


      isym = 13     180 deg rotation - cart. axis [0,1,1]        

 cryst.   s(13) = (     0          1          0      )
                  (     1          0          0      )
                  (     0          0         -1      )

 cart.    s(13) = ( -1.0000000  0.0000000  0.0000000 )
                  (  0.0000000  0.0000000  1.0000000 )
                  (  0.0000000  1.0000000  0.0000000 )


      isym = 14     180 deg rotation - cart. axis [0,1,-1]       

 cryst.   s(14) = (    -1          0          0      )
                  (     0         -1          0      )
                  (     1         -1          1      )

 cart.    s(14) = ( -1.0000000  0.0000000  0.0000000 )
                  (  0.0000000  0.0000000 -1.0000000 )
                  (  0.0000000 -1.0000000  0.0000000 )


      isym = 15      90 deg rotation - cart. axis [-1,0,0]       

 cryst.   s(15) = (     0          0         -1      )
                  (    -1          1         -1      )
                  (     0          1          0      )

 cart.    s(15) = (  1.0000000  0.0000000  0.0000000 )
                  (  0.0000000  0.0000000  1.0000000 )
                  (  0.0000000 -1.0000000  0.0000000 )


      isym = 16      90 deg rotation - cart. axis [1,0,0]        

 cryst.   s(16) = (     1         -1          1      )
                  (     0          0          1      )
                  (    -1          0          0      )

 cart.    s(16) = (  1.0000000  0.0000000  0.0000000 )
                  (  0.0000000  0.0000000 -1.0000000 )
                  (  0.0000000  1.0000000  0.0000000 )


      isym = 17     120 deg rotation - cart. axis [-1,-1,-1]     

 cryst.   s(17) = (     1          0          0      )
                  (     0          0         -1      )
                  (    -1          1         -1      )

 cart.    s(17) = (  0.0000000  1.0000000  0.0000000 )
                  (  0.0000000  0.0000000  1.0000000 )
                  (  1.0000000  0.0000000  0.0000000 )


      isym = 18     120 deg rotation - cart. axis [-1,1,1]       

 cryst.   s(18) = (    -1          1         -1      )
                  (     0          1          0      )
                  (     1          0          0      )

 cart.    s(18) = (  0.0000000 -1.0000000  0.0000000 )
                  (  0.0000000  0.0000000  1.0000000 )
                  ( -1.0000000  0.0000000  0.0000000 )


      isym = 19     120 deg rotation - cart. axis [1,1,-1]       

 cryst.   s(19) = (     0         -1          0      )
                  (     1         -1          1      )
                  (     0          0          1      )

 cart.    s(19) = (  0.0000000  1.0000000  0.0000000 )
                  (  0.0000000  0.0000000 -1.0000000 )
                  ( -1.0000000  0.0000000  0.0000000 )


      isym = 20     120 deg rotation - cart. axis [1,-1,1]       

 cryst.   s(20) = (     0          0          1      )
                  (    -1          0          0      )
                  (     0         -1          0      )

 cart.    s(20) = (  0.0000000 -1.0000000  0.0000000 )
                  (  0.0000000  0.0000000 -1.0000000 )
                  (  1.0000000  0.0000000  0.0000000 )


      isym = 21     120 deg rotation - cart. axis [1,1,1]        

 cryst.   s(21) = (     1          0          0      )
                  (     1         -1          1      )
                  (     0         -1          0      )

 cart.    s(21) = (  0.0000000  0.0000000  1.0000000 )
                  (  1.0000000  0.0000000  0.0000000 )
                  (  0.0000000  1.0000000  0.0000000 )


      isym = 22     120 deg rotation - cart. axis [-1,1,-1]      

 cryst.   s(22) = (     0         -1          0      )
                  (     0          0         -1      )
                  (     1          0          0      )

 cart.    s(22) = (  0.0000000  0.0000000  1.0000000 )
                  ( -1.0000000  0.0000000  0.0000000 )
                  (  0.0000000 -1.0000000  0.0000000 )


      isym = 23     120 deg rotation - cart. axis [1,-1,-1]      

 cryst.   s(23) = (     0          0          1      )
                  (     0          1          0      )
                  (    -1          1         -1      )

 cart.    s(23) = (  0.0000000  0.0000000 -1.0000000 )
                  ( -1.0000000  0.0000000  0.0000000 )
                  (  0.0000000  1.0000000  0.0000000 )


      isym = 24     120 deg rotation - cart. axis [-1,-1,1]      

 cryst.   s(24) = (    -1          1         -1      )
                  (    -1          0          0      )
                  (     0          0          1      )

 cart.    s(24) = (  0.0000000  0.0000000 -1.0000000 )
                  (  1.0000000  0.0000000  0.0000000 )
                  (  0.0000000 -1.0000000  0.0000000 )


      isym = 25     inversion                                    

 cryst.   s(25) = (    -1          0          0      )
                  (     0         -1          0      )
                  (     0          0         -1      )

 cart.    s(25) = ( -1.0000000  0.0000000  0.0000000 )
                  (  0.0000000 -1.0000000  0.0000000 )
                  (  0.0000000  0.0000000 -1.0000000 )


      isym = 26     inv. 180 deg rotation - cart. axis [0,0,1]   

 cryst.   s(26) = (     0          0         -1      )
                  (    -1          1         -1      )
                  (    -1          0          0      )

 cart.    s(26) = (  1.0000000  0.0000000  0.0000000 )
                  (  0.0000000  1.0000000  0.0000000 )
                  (  0.0000000  0.0000000 -1.0000000 )


      isym = 27     inv. 180 deg rotation - cart. axis [0,1,0]   

 cryst.   s(27) = (     1         -1          1      )
                  (     0          0          1      )
                  (     0          1          0      )

 cart.    s(27) = (  1.0000000  0.0000000  0.0000000 )
                  (  0.0000000 -1.0000000  0.0000000 )
                  (  0.0000000  0.0000000  1.0000000 )


      isym = 28     inv. 180 deg rotation - cart. axis [1,0,0]   

 cryst.   s(28) = (     0          1          0      )
                  (     1          0          0      )
                  (     1         -1          1      )

 cart.    s(28) = ( -1.0000000  0.0000000  0.0000000 )
                  (  0.0000000  1.0000000  0.0000000 )
                  (  0.0000000  0.0000000  1.0000000 )


      isym = 29     inv. 180 deg rotation - cart. axis [1,1,0]   

 cryst.   s(29) = (     0          0          1      )
                  (     0          1          0      )
                  (     1          0          0      )

 cart.    s(29) = (  0.0000000 -1.0000000  0.0000000 )
                  ( -1.0000000  0.0000000  0.0000000 )
                  (  0.0000000  0.0000000  1.0000000 )


      isym = 30     inv. 180 deg rotation - cart. axis [1,-1,0]  

 cryst.   s(30) = (     1          0          0      )
                  (     1         -1          1      )
                  (     0          0          1      )

 cart.    s(30) = (  0.0000000  1.0000000  0.0000000 )
                  (  1.0000000  0.0000000  0.0000000 )
                  (  0.0000000  0.0000000  1.0000000 )


      isym = 31     inv.  90 deg rotation - cart. axis [0,0,-1]  

 cryst.   s(31) = (    -1          1         -1      )
                  (    -1          0          0      )
                  (     0         -1          0      )

 cart.    s(31) = (  0.0000000 -1.0000000  0.0000000 )
                  (  1.0000000  0.0000000  0.0000000 )
                  (  0.0000000  0.0000000 -1.0000000 )


      isym = 32     inv.  90 deg rotation - cart. axis [0,0,1]   

 cryst.   s(32) = (     0         -1          0      )
                  (     0          0         -1      )
                  (    -1          1         -1      )

 cart.    s(32) = (  0.0000000  1.0000000  0.0000000 )
                  ( -1.0000000  0.0000000  0.0000000 )
                  (  0.0000000  0.0000000 -1.0000000 )


      isym = 33     inv. 180 deg rotation - cart. axis [1,0,1]   

 cryst.   s(33) = (    -1          1         -1      )
                  (     0          1          0      )
                  (     0          0          1      )

 cart.    s(33) = (  0.0000000  0.0000000 -1.0000000 )
                  (  0.0000000  1.0000000  0.0000000 )
                  ( -1.0000000  0.0000000  0.0000000 )


      isym = 34     inv. 180 deg rotation - cart. axis [-1,0,1]  

 cryst.   s(34) = (     1          0          0      )
                  (     0          0         -1      )
                  (     0         -1          0      )

 cart.    s(34) = (  0.0000000  0.0000000  1.0000000 )
                  (  0.0000000  1.0000000  0.0000000 )
                  (  1.0000000  0.0000000  0.0000000 )


      isym = 35     inv.  90 deg rotation - cart. axis [0,1,0]   

 cryst.   s(35) = (     0          0          1      )
                  (    -1          0          0      )
                  (    -1          1         -1      )

 cart.    s(35) = (  0.0000000  0.0000000 -1.0000000 )
                  (  0.0000000 -1.0000000  0.0000000 )
                  (  1.0000000  0.0000000  0.0000000 )


      isym = 36     inv.  90 deg rotation - cart. axis [0,-1,0]  

 cryst.   s(36) = (     0         -1          0      )
                  (     1         -1          1      )
                  (     1          0          0      )

 cart.    s(36) = (  0.0000000  0.0000000  1.0000000 )
                  (  0.0000000 -1.0000000  0.0000000 )
                  ( -1.0000000  0.0000000  0.0000000 )


      isym = 37     inv. 180 deg rotation - cart. axis [0,1,1]   

 cryst.   s(37) = (     0         -1          0      )
                  (    -1          0          0      )
                  (     0          0          1      )

 cart.    s(37) = (  1.0000000  0.0000000  0.0000000 )
                  (  0.0000000  0.0000000 -1.0000000 )
                  (  0.0000000 -1.0000000  0.0000000 )


      isym = 38     inv. 180 deg rotation - cart. axis [0,1,-1]  

 cryst.   s(38) = (     1          0          0      )
                  (     0          1          0      )
                  (    -1          1         -1      )

 cart.    s(38) = (  1.0000000  0.0000000  0.0000000 )
                  (  0.0000000  0.0000000  1.0000000 )
                  (  0.0000000  1.0000000  0.0000000 )


      isym = 39     inv.  90 deg rotation - cart. axis [-1,0,0]  

 cryst.   s(39) = (     0          0          1      )
                  (     1         -1          1      )
                  (     0         -1          0      )

 cart.    s(39) = ( -1.0000000  0.0000000  0.0000000 )
                  (  0.0000000  0.0000000 -1.0000000 )
                  (  0.0000000  1.0000000  0.0000000 )


      isym = 40     inv.  90 deg rotation - cart. axis [1,0,0]   

 cryst.   s(40) = (    -1          1         -1      )
                  (     0          0         -1      )
                  (     1          0          0      )

 cart.    s(40) = ( -1.0000000  0.0000000  0.0000000 )
                  (  0.0000000  0.0000000  1.0000000 )
                  (  0.0000000 -1.0000000  0.0000000 )


      isym = 41     inv. 120 deg rotation - cart. axis [-1,-1,-1]

 cryst.   s(41) = (    -1          0          0      )
                  (     0          0          1      )
                  (     1         -1          1      )

 cart.    s(41) = (  0.0000000 -1.0000000  0.0000000 )
                  (  0.0000000  0.0000000 -1.0000000 )
                  ( -1.0000000  0.0000000  0.0000000 )


      isym = 42     inv. 120 deg rotation - cart. axis [-1,1,1]  

 cryst.   s(42) = (     1         -1          1      )
                  (     0         -1          0      )
                  (    -1          0          0      )

 cart.    s(42) = (  0.0000000  1.0000000  0.0000000 )
                  (  0.0000000  0.0000000 -1.0000000 )
                  (  1.0000000  0.0000000  0.0000000 )


      isym = 43     inv. 120 deg rotation - cart. axis [1,1,-1]  

 cryst.   s(43) = (     0          1          0      )
                  (    -1          1         -1      )
                  (     0          0         -1      )

 cart.    s(43) = (  0.0000000 -1.0000000  0.0000000 )
                  (  0.0000000  0.0000000  1.0000000 )
                  (  1.0000000  0.0000000  0.0000000 )


      isym = 44     inv. 120 deg rotation - cart. axis [1,-1,1]  

 cryst.   s(44) = (     0          0         -1      )
                  (     1          0          0      )
                  (     0          1          0      )

 cart.    s(44) = (  0.0000000  1.0000000  0.0000000 )
                  (  0.0000000  0.0000000  1.0000000 )
                  ( -1.0000000  0.0000000  0.0000000 )


      isym = 45     inv. 120 deg rotation - cart. axis [1,1,1]   

 cryst.   s(45) = (    -1          0          0      )
                  (    -1          1         -1      )
                  (     0          1          0      )

 cart.    s(45) = (  0.0000000  0.0000000 -1.0000000 )
                  ( -1.0000000  0.0000000  0.0000000 )
                  (  0.0000000 -1.0000000  0.0000000 )


      isym = 46     inv. 120 deg rotation - cart. axis [-1,1,-1] 

 cryst.   s(46) = (     0          1          0      )
                  (     0          0          1      )
                  (    -1          0          0      )

 cart.    s(46) = (  0.0000000  0.0000000 -1.0000000 )
                  (  1.0000000  0.0000000  0.0000000 )
                  (  0.0000000  1.0000000  0.0000000 )


      isym = 47     inv. 120 deg rotation - cart. axis [1,-1,-1] 

 cryst.   s(47) = (     0          0         -1      )
                  (     0         -1          0      )
                  (     1         -1          1      )

 cart.    s(47) = (  0.0000000  0.0000000  1.0000000 )
                  (  1.0000000  0.0000000  0.0000000 )
                  (  0.0000000 -1.0000000  0.0000000 )


      isym = 48     inv. 120 deg rotation - cart. axis [-1,-1,1] 

 cryst.   s(48) = (     1         -1          1      )
                  (     1          0          0      )
                  (     0          0         -1      )

 cart.    s(48) = (  0.0000000  0.0000000  1.0000000 )
                  ( -1.0000000  0.0000000  0.0000000 )
                  (  0.0000000  1.0000000  0.0000000 )


     point group O_h (m-3m) 
     there are 10 classes
     the character table:

       E     8C3   3C2   6C4   6C2'  i     8S6   3s_h  6S4   6s_d 
A_1g   1.00  1.00  1.00  1.00  1.00  1.00  1.00  1.00  1.00  1.00
A_2g   1.00  1.00  1.00 -1.00 -1.00  1.00  1.00  1.00 -1.00 -1.00
E_g    2.00 -1.00  2.00  0.00  0.00  2.00 -1.00  2.00  0.00  0.00
T_1g   3.00  0.00 -1.00  1.00 -1.00  3.00  0.00 -1.00  1.00 -1.00
T_2g   3.00  0.00 -1.00 -1.00  1.00  3.00  0.00 -1.00 -1.00  1.00
A_1u   1.00  1.00  1.00  1.00  1.00 -1.00 -1.00 -1.00 -1.00 -1.00
A_2u   1.00  1.00  1.00 -1.00 -1.00 -1.00 -1.00 -1.00  1.00  1.00
E_u    2.00 -1.00  2.00  0.00  0.00 -2.00  1.00 -2.00  0.00  0.00
T_1u   3.00  0.00 -1.00  1.00 -1.00 -3.00  0.00  1.00 -1.00  1.00
T_2u   3.00  0.00 -1.00 -1.00  1.00 -3.00  0.00  1.00  1.00 -1.00

     the symmetry operations in each class and the name of the first element:

     E        1
          identity                                               
     8C3     17   19   20   18   24   21   22   23
          120 deg rotation - cart. axis [-1,-1,-1]               
     3C2      2    4    3
          180 deg rotation - cart. axis [0,0,1]                  
     6C4      7    8   15   16   12   11
           90 deg rotation - cart. axis [0,0,-1]                 
     6C2'     5    6   14   13   10    9
          180 deg rotation - cart. axis [1,1,0]                  
     i       25
          inversion                                              
     8S6     41   43   44   42   48   45   46   47
          inv. 120 deg rotation - cart. axis [-1,-1,-1]          
     3s_h    26   28   27
          inv. 180 deg rotation - cart. axis [0,0,1]             
     6S4     31   32   39   40   36   35
          inv.  90 deg rotation - cart. axis [0,0,-1]            
     6s_d    29   30   38   37   34   33
          inv. 180 deg rotation - cart. axis [1,1,0]             

   Cartesian axes

     site n.     atom                  positions (alat units)
         1        Fe     tau(   1) = (   0.0000000   0.0000000   0.0000000  )

   Crystallographic axes

     site n.     atom                  positions (cryst. coord.)
         1        Fe     tau(   1) = (  0.0000000  0.0000000  0.0000000  )

     number of k points=   145  Marzari-Vanderbilt smearing, width (Ry)=  0.0100
                       cart. coord. in units 2pi/alat
        k(    1) = (   0.0000000   0.0000000   0.0000000), wk =   0.0002441
        k(    2) = (   0.0000000  -0.0625000   0.0625000), wk =   0.0029297
        k(    3) = (   0.0000000  -0.1250000   0.1250000), wk =   0.0029297
        k(    4) = (   0.0000000  -0.1875000   0.1875000), wk =   0.0029297
        k(    5) = (   0.0000000  -0.2500000   0.2500000), wk =   0.0029297
        k(    6) = (   0.0000000  -0.3125000   0.3125000), wk =   0.0029297
        k(    7) = (   0.0000000  -0.3750000   0.3750000), wk =   0.0029297
        k(    8) = (   0.0000000  -0.4375000   0.4375000), wk =   0.0029297
        k(    9) = (   0.0000000   0.5000000  -0.5000000), wk =   0.0014648
        k(   10) = (  -0.0625000  -0.0625000   0.1250000), wk =   0.0058594
        k(   11) = (  -0.0625000  -0.1250000   0.1875000), wk =   0.0117188
        k(   12) = (  -0.0625000  -0.1875000   0.2500000), wk =   0.0117188
        k(   13) = (  -0.0625000  -0.2500000   0.3125000), wk =   0.0117188
        k(   14) = (  -0.0625000  -0.3125000   0.3750000), wk =   0.0117188
        k(   15) = (  -0.0625000  -0.3750000   0.4375000), wk =   0.0117188
        k(   16) = (  -0.0625000   0.5625000  -0.5000000), wk =   0.0117188
        k(   17) = (  -0.1250000  -0.1250000   0.2500000), wk =   0.0058594
        k(   18) = (  -0.1250000  -0.1875000   0.3125000), wk =   0.0117188
        k(   19) = (  -0.1250000  -0.2500000   0.3750000), wk =   0.0117188
        k(   20) = (  -0.1250000  -0.3125000   0.4375000), wk =   0.0117188
        k(   21) = (  -0.1250000   0.6250000  -0.5000000), wk =   0.0117188
        k(   22) = (  -0.1250000   0.5625000  -0.4375000), wk =   0.0058594
        k(   23) = (  -0.1875000  -0.1875000   0.3750000), wk =   0.0058594
        k(   24) = (  -0.1875000  -0.2500000   0.4375000), wk =   0.0117188
        k(   25) = (  -0.1875000   0.6875000  -0.5000000), wk =   0.0117188
        k(   26) = (  -0.1875000   0.6250000  -0.4375000), wk =   0.0117188
        k(   27) = (  -0.2500000   0.7500000  -0.5000000), wk =   0.0058594
        k(   28) = (  -0.2500000   0.6875000  -0.4375000), wk =   0.0117188
        k(   29) = (  -0.2500000   0.6250000  -0.3750000), wk =   0.0058594
        k(   30) = (  -0.3125000   0.6875000  -0.3750000), wk =   0.0058594
        k(   31) = (   0.0000000   0.0000000   0.1250000), wk =   0.0014648
        k(   32) = (   0.0000000  -0.0625000   0.1875000), wk =   0.0058594
        k(   33) = (   0.0000000  -0.1250000   0.2500000), wk =   0.0058594
        k(   34) = (   0.0000000  -0.1875000   0.3125000), wk =   0.0058594
        k(   35) = (   0.0000000  -0.2500000   0.3750000), wk =   0.0058594
        k(   36) = (   0.0000000  -0.3125000   0.4375000), wk =   0.0058594
        k(   37) = (   0.0000000  -0.3750000   0.5000000), wk =   0.0058594
        k(   38) = (   0.0000000   0.5625000  -0.4375000), wk =   0.0029297
        k(   39) = (  -0.0625000  -0.0625000   0.2500000), wk =   0.0058594
        k(   40) = (  -0.0625000  -0.1250000   0.3125000), wk =   0.0117188
        k(   41) = (  -0.0625000  -0.1875000   0.3750000), wk =   0.0117188
        k(   42) = (  -0.0625000  -0.2500000   0.4375000), wk =   0.0117188
        k(   43) = (  -0.0625000  -0.3125000   0.5000000), wk =   0.0117188
        k(   44) = (  -0.0625000   0.6250000  -0.4375000), wk =   0.0117188
        k(   45) = (  -0.1250000   0.1250000   0.1250000), wk =   0.0019531
        k(   46) = (  -0.1250000  -0.1250000   0.3750000), wk =   0.0058594
        k(   47) = (  -0.1250000  -0.1875000   0.4375000), wk =   0.0117188
        k(   48) = (  -0.1250000  -0.2500000   0.5000000), wk =   0.0117188
        k(   49) = (  -0.1250000   0.6875000  -0.4375000), wk =   0.0117188
        k(   50) = (  -0.1250000   0.6250000  -0.3750000), wk =   0.0058594
        k(   51) = (  -0.1875000   0.1875000   0.1250000), wk =   0.0058594
        k(   52) = (  -0.1875000  -0.1875000   0.5000000), wk =   0.0058594
        k(   53) = (  -0.1875000   0.7500000  -0.4375000), wk =   0.0117188
        k(   54) = (  -0.1875000   0.6875000  -0.3750000), wk =   0.0117188
        k(   55) = (  -0.2500000   0.2500000   0.1250000), wk =   0.0058594
        k(   56) = (  -0.2500000   0.1875000   0.1875000), wk =   0.0058594
        k(   57) = (  -0.2500000   0.7500000  -0.3750000), wk =   0.0058594
        k(   58) = (  -0.2500000   0.6875000  -0.3125000), wk =   0.0058594
        k(   59) = (  -0.3125000   0.3125000   0.1250000), wk =   0.0058594
        k(   60) = (  -0.3125000   0.2500000   0.1875000), wk =   0.0117188
        k(   61) = (  -0.3750000   0.3750000   0.1250000), wk =   0.0058594
        k(   62) = (  -0.3750000   0.3125000   0.1875000), wk =   0.0117188
        k(   63) = (  -0.3750000   0.2500000   0.2500000), wk =   0.0058594
        k(   64) = (   0.5625000  -0.5625000   0.1250000), wk =   0.0058594
        k(   65) = (   0.5625000  -0.6250000   0.1875000), wk =   0.0117188
        k(   66) = (   0.5625000  -0.6875000   0.2500000), wk =   0.0117188
        k(   67) = (   0.5000000  -0.5000000   0.1250000), wk =   0.0029297
        k(   68) = (   0.5000000  -0.5625000   0.1875000), wk =   0.0117188
        k(   69) = (   0.5000000  -0.6250000   0.2500000), wk =   0.0117188
        k(   70) = (   0.5000000  -0.6875000   0.3125000), wk =   0.0058594
        k(   71) = (   0.4375000  -0.5625000   0.2500000), wk =   0.0058594
        k(   72) = (   0.4375000  -0.6250000   0.3125000), wk =   0.0117188
        k(   73) = (   0.3750000  -0.6250000   0.3750000), wk =   0.0019531
        k(   74) = (   0.0000000   0.0000000   0.2500000), wk =   0.0014648
        k(   75) = (   0.0000000  -0.0625000   0.3125000), wk =   0.0058594
        k(   76) = (   0.0000000  -0.1250000   0.3750000), wk =   0.0058594
        k(   77) = (   0.0000000  -0.1875000   0.4375000), wk =   0.0058594
        k(   78) = (   0.0000000  -0.2500000   0.5000000), wk =   0.0058594
        k(   79) = (   0.0000000  -0.3125000   0.5625000), wk =   0.0058594
        k(   80) = (   0.0000000   0.6250000  -0.3750000), wk =   0.0029297
        k(   81) = (  -0.0625000  -0.0625000   0.3750000), wk =   0.0058594
        k(   82) = (  -0.0625000  -0.1250000   0.4375000), wk =   0.0117188
        k(   83) = (  -0.0625000  -0.1875000   0.5000000), wk =   0.0117188
        k(   84) = (  -0.0625000  -0.2500000   0.5625000), wk =   0.0117188
        k(   85) = (  -0.0625000   0.6875000  -0.3750000), wk =   0.0117188
        k(   86) = (  -0.1250000  -0.1250000   0.5000000), wk =   0.0058594
        k(   87) = (  -0.1250000  -0.1875000   0.5625000), wk =   0.0117188
        k(   88) = (  -0.1250000   0.7500000  -0.3750000), wk =   0.0117188
        k(   89) = (  -0.1250000   0.6875000  -0.3125000), wk =   0.0058594
        k(   90) = (  -0.1875000   0.8125000  -0.3750000), wk =   0.0058594
        k(   91) = (  -0.1875000   0.7500000  -0.3125000), wk =   0.0117188
        k(   92) = (  -0.2500000   0.2500000   0.2500000), wk =   0.0019531
        k(   93) = (  -0.2500000   0.7500000  -0.2500000), wk =   0.0019531
        k(   94) = (  -0.3125000   0.3125000   0.2500000), wk =   0.0058594
        k(   95) = (   0.6250000  -0.6250000   0.2500000), wk =   0.0058594
        k(   96) = (   0.6250000  -0.6875000   0.3125000), wk =   0.0058594
        k(   97) = (   0.5625000  -0.5625000   0.2500000), wk =   0.0058594
        k(   98) = (   0.5625000  -0.6250000   0.3125000), wk =   0.0117188
        k(   99) = (   0.5000000  -0.5000000   0.2500000), wk =   0.0029297
        k(  100) = (   0.5000000  -0.5625000   0.3125000), wk =   0.0117188
        k(  101) = (   0.5000000  -0.6250000   0.3750000), wk =   0.0058594
        k(  102) = (   0.4375000  -0.5625000   0.3750000), wk =   0.0058594
        k(  103) = (   0.0000000   0.0000000   0.3750000), wk =   0.0014648
        k(  104) = (   0.0000000  -0.0625000   0.4375000), wk =   0.0058594
        k(  105) = (   0.0000000  -0.1250000   0.5000000), wk =   0.0058594
        k(  106) = (   0.0000000  -0.1875000   0.5625000), wk =   0.0058594
        k(  107) = (   0.0000000  -0.2500000   0.6250000), wk =   0.0058594
        k(  108) = (   0.0000000   0.6875000  -0.3125000), wk =   0.0029297
        k(  109) = (  -0.0625000  -0.0625000   0.5000000), wk =   0.0058594
        k(  110) = (  -0.0625000  -0.1250000   0.5625000), wk =   0.0117188
        k(  111) = (  -0.0625000  -0.1875000   0.6250000), wk =   0.0117188
        k(  112) = (  -0.0625000   0.7500000  -0.3125000), wk =   0.0117188
        k(  113) = (  -0.1250000  -0.1250000   0.6250000), wk =   0.0058594
        k(  114) = (  -0.1250000   0.8125000  -0.3125000), wk =   0.0117188
        k(  115) = (  -0.1250000   0.7500000  -0.2500000), wk =   0.0058594
        k(  116) = (  -0.1875000   0.8125000  -0.2500000), wk =   0.0058594
        k(  117) = (   0.6250000  -0.6250000   0.3750000), wk =   0.0019531
        k(  118) = (   0.5625000  -0.5625000   0.3750000), wk =   0.0058594
        k(  119) = (   0.5000000  -0.5000000   0.3750000), wk =   0.0029297
        k(  120) = (   0.5000000  -0.5625000   0.4375000), wk =   0.0058594
        k(  121) = (   0.0000000   0.0000000   0.5000000), wk =   0.0014648
        k(  122) = (   0.0000000  -0.0625000   0.5625000), wk =   0.0058594
        k(  123) = (   0.0000000  -0.1250000   0.6250000), wk =   0.0058594
        k(  124) = (   0.0000000  -0.1875000   0.6875000), wk =   0.0058594
        k(  125) = (   0.0000000   0.7500000  -0.2500000), wk =   0.0029297
        k(  126) = (  -0.0625000  -0.0625000   0.6250000), wk =   0.0058594
        k(  127) = (  -0.0625000  -0.1250000   0.6875000), wk =   0.0117188
        k(  128) = (  -0.0625000   0.8125000  -0.2500000), wk =   0.0117188
        k(  129) = (  -0.1250000   0.8750000  -0.2500000), wk =   0.0058594
        k(  130) = (  -0.1250000   0.8125000  -0.1875000), wk =   0.0058594
        k(  131) = (   0.5000000  -0.5000000   0.5000000), wk =   0.0004883
        k(  132) = (   0.0000000   0.0000000   0.6250000), wk =   0.0014648
        k(  133) = (   0.0000000  -0.0625000   0.6875000), wk =   0.0058594
        k(  134) = (   0.0000000  -0.1250000   0.7500000), wk =   0.0058594
        k(  135) = (   0.0000000   0.8125000  -0.1875000), wk =   0.0029297
        k(  136) = (  -0.0625000  -0.0625000   0.7500000), wk =   0.0058594
        k(  137) = (  -0.0625000   0.8750000  -0.1875000), wk =   0.0117188
        k(  138) = (  -0.1250000   0.8750000  -0.1250000), wk =   0.0019531
        k(  139) = (   0.0000000   0.0000000   0.7500000), wk =   0.0014648
        k(  140) = (   0.0000000  -0.0625000   0.8125000), wk =   0.0058594
        k(  141) = (   0.0000000   0.8750000  -0.1250000), wk =   0.0029297
        k(  142) = (  -0.0625000   0.9375000  -0.1250000), wk =   0.0058594
        k(  143) = (   0.0000000   0.0000000   0.8750000), wk =   0.0014648
        k(  144) = (   0.0000000   0.9375000  -0.0625000), wk =   0.0029297
        k(  145) = (   0.0000000   0.0000000  -1.0000000), wk =   0.0002441

                       cryst. coord.
        k(    1) = (   0.0000000   0.0000000   0.0000000), wk =   0.0002441
        k(    2) = (   0.0000000   0.0000000   0.0625000), wk =   0.0029297
        k(    3) = (   0.0000000   0.0000000   0.1250000), wk =   0.0029297
        k(    4) = (   0.0000000   0.0000000   0.1875000), wk =   0.0029297
        k(    5) = (   0.0000000   0.0000000   0.2500000), wk =   0.0029297
        k(    6) = (   0.0000000   0.0000000   0.3125000), wk =   0.0029297
        k(    7) = (   0.0000000   0.0000000   0.3750000), wk =   0.0029297
        k(    8) = (   0.0000000   0.0000000   0.4375000), wk =   0.0029297
        k(    9) = (   0.0000000   0.0000000  -0.5000000), wk =   0.0014648
        k(   10) = (   0.0000000   0.0625000   0.1250000), wk =   0.0058594
        k(   11) = (   0.0000000   0.0625000   0.1875000), wk =   0.0117188
        k(   12) = (   0.0000000   0.0625000   0.2500000), wk =   0.0117188
        k(   13) = (   0.0000000   0.0625000   0.3125000), wk =   0.0117188
        k(   14) = (   0.0000000   0.0625000   0.3750000), wk =   0.0117188
        k(   15) = (   0.0000000   0.0625000   0.4375000), wk =   0.0117188
        k(   16) = (   0.0000000   0.0625000  -0.5000000), wk =   0.0117188
        k(   17) = (   0.0000000   0.1250000   0.2500000), wk =   0.0058594
        k(   18) = (   0.0000000   0.1250000   0.3125000), wk =   0.0117188
        k(   19) = (   0.0000000   0.1250000   0.3750000), wk =   0.0117188
        k(   20) = (   0.0000000   0.1250000   0.4375000), wk =   0.0117188
        k(   21) = (   0.0000000   0.1250000  -0.5000000), wk =   0.0117188
        k(   22) = (   0.0000000   0.1250000  -0.4375000), wk =   0.0058594
        k(   23) = (   0.0000000   0.1875000   0.3750000), wk =   0.0058594
        k(   24) = (   0.0000000   0.1875000   0.4375000), wk =   0.0117188
        k(   25) = (   0.0000000   0.1875000  -0.5000000), wk =   0.0117188
        k(   26) = (   0.0000000   0.1875000  -0.4375000), wk =   0.0117188
        k(   27) = (   0.0000000   0.2500000  -0.5000000), wk =   0.0058594
        k(   28) = (   0.0000000   0.2500000  -0.4375000), wk =   0.0117188
        k(   29) = (   0.0000000   0.2500000  -0.3750000), wk =   0.0058594
        k(   30) = (   0.0000000   0.3125000  -0.3750000), wk =   0.0058594
        k(   31) = (   0.0625000   0.0625000   0.0625000), wk =   0.0014648
        k(   32) = (   0.0625000   0.0625000   0.1250000), wk =   0.0058594
        k(   33) = (   0.0625000   0.0625000   0.1875000), wk =   0.0058594
        k(   34) = (   0.0625000   0.0625000   0.2500000), wk =   0.0058594
        k(   35) = (   0.0625000   0.0625000   0.3125000), wk =   0.0058594
        k(   36) = (   0.0625000   0.0625000   0.3750000), wk =   0.0058594
        k(   37) = (   0.0625000   0.0625000   0.4375000), wk =   0.0058594
        k(   38) = (   0.0625000   0.0625000  -0.5000000), wk =   0.0029297
        k(   39) = (   0.0625000   0.1250000   0.1875000), wk =   0.0058594
        k(   40) = (   0.0625000   0.1250000   0.2500000), wk =   0.0117188
        k(   41) = (   0.0625000   0.1250000   0.3125000), wk =   0.0117188
        k(   42) = (   0.0625000   0.1250000   0.3750000), wk =   0.0117188
        k(   43) = (   0.0625000   0.1250000   0.4375000), wk =   0.0117188
        k(   44) = (   0.0625000   0.1250000  -0.5000000), wk =   0.0117188
        k(   45) = (   0.0625000   0.1875000   0.0625000), wk =   0.0019531
        k(   46) = (   0.0625000   0.1875000   0.3125000), wk =   0.0058594
        k(   47) = (   0.0625000   0.1875000   0.3750000), wk =   0.0117188
        k(   48) = (   0.0625000   0.1875000   0.4375000), wk =   0.0117188
        k(   49) = (   0.0625000   0.1875000  -0.5000000), wk =   0.0117188
        k(   50) = (   0.0625000   0.1875000  -0.4375000), wk =   0.0058594
        k(   51) = (   0.0625000   0.2500000   0.0625000), wk =   0.0058594
        k(   52) = (   0.0625000   0.2500000   0.4375000), wk =   0.0058594
        k(   53) = (   0.0625000   0.2500000  -0.5000000), wk =   0.0117188
        k(   54) = (   0.0625000   0.2500000  -0.4375000), wk =   0.0117188
        k(   55) = (   0.0625000   0.3125000   0.0625000), wk =   0.0058594
        k(   56) = (   0.0625000   0.3125000   0.1250000), wk =   0.0058594
        k(   57) = (   0.0625000   0.3125000  -0.4375000), wk =   0.0058594
        k(   58) = (   0.0625000   0.3125000  -0.3750000), wk =   0.0058594
        k(   59) = (   0.0625000   0.3750000   0.0625000), wk =   0.0058594
        k(   60) = (   0.0625000   0.3750000   0.1250000), wk =   0.0117188
        k(   61) = (   0.0625000   0.4375000   0.0625000), wk =   0.0058594
        k(   62) = (   0.0625000   0.4375000   0.1250000), wk =   0.0117188
        k(   63) = (   0.0625000   0.4375000   0.1875000), wk =   0.0058594
        k(   64) = (   0.0625000  -0.5000000   0.0625000), wk =   0.0058594
        k(   65) = (   0.0625000  -0.5000000   0.1250000), wk =   0.0117188
        k(   66) = (   0.0625000  -0.5000000   0.1875000), wk =   0.0117188
        k(   67) = (   0.0625000  -0.4375000   0.0625000), wk =   0.0029297
        k(   68) = (   0.0625000  -0.4375000   0.1250000), wk =   0.0117188
        k(   69) = (   0.0625000  -0.4375000   0.1875000), wk =   0.0117188
        k(   70) = (   0.0625000  -0.4375000   0.2500000), wk =   0.0058594
        k(   71) = (   0.0625000  -0.3750000   0.1875000), wk =   0.0058594
        k(   72) = (   0.0625000  -0.3750000   0.2500000), wk =   0.0117188
        k(   73) = (   0.0625000  -0.3125000   0.3125000), wk =   0.0019531
        k(   74) = (   0.1250000   0.1250000   0.1250000), wk =   0.0014648
        k(   75) = (   0.1250000   0.1250000   0.1875000), wk =   0.0058594
        k(   76) = (   0.1250000   0.1250000   0.2500000), wk =   0.0058594
        k(   77) = (   0.1250000   0.1250000   0.3125000), wk =   0.0058594
        k(   78) = (   0.1250000   0.1250000   0.3750000), wk =   0.0058594
        k(   79) = (   0.1250000   0.1250000   0.4375000), wk =   0.0058594
        k(   80) = (   0.1250000   0.1250000  -0.5000000), wk =   0.0029297
        k(   81) = (   0.1250000   0.1875000   0.2500000), wk =   0.0058594
        k(   82) = (   0.1250000   0.1875000   0.3125000), wk =   0.0117188
        k(   83) = (   0.1250000   0.1875000   0.3750000), wk =   0.0117188
        k(   84) = (   0.1250000   0.1875000   0.4375000), wk =   0.0117188
        k(   85) = (   0.1250000   0.1875000  -0.5000000), wk =   0.0117188
        k(   86) = (   0.1250000   0.2500000   0.3750000), wk =   0.0058594
        k(   87) = (   0.1250000   0.2500000   0.4375000), wk =   0.0117188
        k(   88) = (   0.1250000   0.2500000  -0.5000000), wk =   0.0117188
        k(   89) = (   0.1250000   0.2500000  -0.4375000), wk =   0.0058594
        k(   90) = (   0.1250000   0.3125000  -0.5000000), wk =   0.0058594
        k(   91) = (   0.1250000   0.3125000  -0.4375000), wk =   0.0117188
        k(   92) = (   0.1250000   0.3750000   0.1250000), wk =   0.0019531
        k(   93) = (   0.1250000   0.3750000  -0.3750000), wk =   0.0019531
        k(   94) = (   0.1250000   0.4375000   0.1250000), wk =   0.0058594
        k(   95) = (   0.1250000  -0.5000000   0.1250000), wk =   0.0058594
        k(   96) = (   0.1250000  -0.5000000   0.1875000), wk =   0.0058594
        k(   97) = (   0.1250000  -0.4375000   0.1250000), wk =   0.0058594
        k(   98) = (   0.1250000  -0.4375000   0.1875000), wk =   0.0117188
        k(   99) = (   0.1250000  -0.3750000   0.1250000), wk =   0.0029297
        k(  100) = (   0.1250000  -0.3750000   0.1875000), wk =   0.0117188
        k(  101) = (   0.1250000  -0.3750000   0.2500000), wk =   0.0058594
        k(  102) = (   0.1250000  -0.3125000   0.2500000), wk =   0.0058594
        k(  103) = (   0.1875000   0.1875000   0.1875000), wk =   0.0014648
        k(  104) = (   0.1875000   0.1875000   0.2500000), wk =   0.0058594
        k(  105) = (   0.1875000   0.1875000   0.3125000), wk =   0.0058594
        k(  106) = (   0.1875000   0.1875000   0.3750000), wk =   0.0058594
        k(  107) = (   0.1875000   0.1875000   0.4375000), wk =   0.0058594
        k(  108) = (   0.1875000   0.1875000  -0.5000000), wk =   0.0029297
        k(  109) = (   0.1875000   0.2500000   0.3125000), wk =   0.0058594
        k(  110) = (   0.1875000   0.2500000   0.3750000), wk =   0.0117188
        k(  111) = (   0.1875000   0.2500000   0.4375000), wk =   0.0117188
        k(  112) = (   0.1875000   0.2500000  -0.5000000), wk =   0.0117188
        k(  113) = (   0.1875000   0.3125000   0.4375000), wk =   0.0058594
        k(  114) = (   0.1875000   0.3125000  -0.5000000), wk =   0.0117188
        k(  115) = (   0.1875000   0.3125000  -0.4375000), wk =   0.0058594
        k(  116) = (   0.1875000   0.3750000  -0.4375000), wk =   0.0058594
        k(  117) = (   0.1875000  -0.4375000   0.1875000), wk =   0.0019531
        k(  118) = (   0.1875000  -0.3750000   0.1875000), wk =   0.0058594
        k(  119) = (   0.1875000  -0.3125000   0.1875000), wk =   0.0029297
        k(  120) = (   0.1875000  -0.3125000   0.2500000), wk =   0.0058594
        k(  121) = (   0.2500000   0.2500000   0.2500000), wk =   0.0014648
        k(  122) = (   0.2500000   0.2500000   0.3125000), wk =   0.0058594
        k(  123) = (   0.2500000   0.2500000   0.3750000), wk =   0.0058594
        k(  124) = (   0.2500000   0.2500000   0.4375000), wk =   0.0058594
        k(  125) = (   0.2500000   0.2500000  -0.5000000), wk =   0.0029297
        k(  126) = (   0.2500000   0.3125000   0.3750000), wk =   0.0058594
        k(  127) = (   0.2500000   0.3125000   0.4375000), wk =   0.0117188
        k(  128) = (   0.2500000   0.3125000  -0.5000000), wk =   0.0117188
        k(  129) = (   0.2500000   0.3750000  -0.5000000), wk =   0.0058594
        k(  130) = (   0.2500000   0.3750000  -0.4375000), wk =   0.0058594
        k(  131) = (   0.2500000  -0.2500000   0.2500000), wk =   0.0004883
        k(  132) = (   0.3125000   0.3125000   0.3125000), wk =   0.0014648
        k(  133) = (   0.3125000   0.3125000   0.3750000), wk =   0.0058594
        k(  134) = (   0.3125000   0.3125000   0.4375000), wk =   0.0058594
        k(  135) = (   0.3125000   0.3125000  -0.5000000), wk =   0.0029297
        k(  136) = (   0.3125000   0.3750000   0.4375000), wk =   0.0058594
        k(  137) = (   0.3125000   0.3750000  -0.5000000), wk =   0.0117188
        k(  138) = (   0.3125000   0.4375000  -0.4375000), wk =   0.0019531
        k(  139) = (   0.3750000   0.3750000   0.3750000), wk =   0.0014648
        k(  140) = (   0.3750000   0.3750000   0.4375000), wk =   0.0058594
        k(  141) = (   0.3750000   0.3750000  -0.5000000), wk =   0.0029297
        k(  142) = (   0.3750000   0.4375000  -0.5000000), wk =   0.0058594
        k(  143) = (   0.4375000   0.4375000   0.4375000), wk =   0.0014648
        k(  144) = (   0.4375000   0.4375000  -0.5000000), wk =   0.0029297
        k(  145) = (  -0.5000000  -0.5000000  -0.5000000), wk =   0.0002441

     Dense  grid:    47597 G-vectors     FFT dimensions: (  50,  50,  50)

     Smooth grid:     9189 G-vectors     FFT dimensions: (  30,  30,  30)

     Dynamical RAM for                 wfc:       0.03 MB

     Dynamical RAM for     wfc (w. buffer):       3.82 MB

     Dynamical RAM for           str. fact:       0.09 MB

     Dynamical RAM for           local pot:       0.00 MB

     Dynamical RAM for          nlocal pot:       0.04 MB

     Dynamical RAM for                qrad:       2.64 MB

     Dynamical RAM for          rho,v,vnew:       1.35 MB

     Dynamical RAM for               rhoin:       0.45 MB

     Dynamical RAM for            rho*nmix:       2.91 MB

     Dynamical RAM for           G-vectors:       0.35 MB

     Dynamical RAM for          h,s,v(r/c):       0.03 MB

     Dynamical RAM for          <psi|beta>:       0.00 MB

     Dynamical RAM for                 psi:       0.05 MB

     Dynamical RAM for                hpsi:       0.05 MB

     Dynamical RAM for                spsi:       0.05 MB

     Dynamical RAM for      wfcinit/wfcrot:       0.06 MB

     Dynamical RAM for           addusdens:       8.63 MB

     Dynamical RAM for          addusforce:       8.59 MB

     Dynamical RAM for         addusstress:       9.24 MB

     Estimated static dynamical RAM per process >       9.71 MB

     Estimated max dynamical RAM per process >      21.86 MB

     Estimated total dynamical RAM >     326.49 MB

     Check: negative core charge=   -0.000010
     Generating pointlists ...
     new r_m :   0.3572 (alat units)  1.9362 (a.u.) for type    1

     Initial potential from superposition of free atoms

     starting charge      15.9996, renormalised to      16.0000
     Starting wfcs are   13 randomized atomic wfcs

     total cpu time spent up to now is     3872.3 secs

     per-process dynamical memory:   190.1 Mb

     Self-consistent Calculation

     iteration #  1     ecut=    90.00 Ry     beta= 0.20
     Davidson diagonalization with overlap

---- Real-time Memory Report at c_bands before calling an iterative solver
           292 MiB given to the printing process from OS
           185 MiB allocation reported by mallinfo(arena+hblkhd)
        340030 MiB available memory on the node where the printing process lives
------------------
     ethr =  1.00E-02,  avg # of iterations =  3.1

     total cpu time spent up to now is    14871.8 secs

     total energy              =    -254.20975346 Ry
     estimated scf accuracy    <       0.26815973 Ry

     total magnetization       =     3.23 Bohr mag/cell
     absolute magnetization    =     3.27 Bohr mag/cell

     iteration #  2     ecut=    90.00 Ry     beta= 0.20
     Davidson diagonalization with overlap

---- Real-time Memory Report at c_bands before calling an iterative solver
           315 MiB given to the printing process from OS
           195 MiB allocation reported by mallinfo(arena+hblkhd)
        443930 MiB available memory on the node where the printing process lives
------------------
