
     Program PWSCF v.7.3.1 starts on 29May2025 at 15: 0:12 

     This program is part of the open-source Quantum ESPRESSO suite
     for quantum simulation of materials; please cite
         "P. Giannozzi et al., J. Phys.:Condens. Matter 21 395502 (2009);
         "P. Giannozzi et al., J. Phys.:Condens. Matter 29 465901 (2017);
         "P. Giannozzi et al., J. Chem. Phys. 152 154105 (2020);
          URL http://www.quantum-espresso.org", 
     in publications or presentations arising from this work. More details at
     http://www.quantum-espresso.org/quote

     Parallel version (MPI & OpenMP), running on     128 processor cores
     Number of MPI processes:               128
     Threads/MPI process:                     1

     MPI processes distributed on     1 nodes
     479264 MiB available memory on the printing compute node when the environment starts

     Waiting for input...
     Reading input from standard input

     Current dimensions of program PWSCF are:
     Max number of different atomic species (ntypx) = 10
     Max number of k-points (npk) =  40000
     Max angular momentum in pseudopotentials (lmaxx) =  4
     file Fe.pbe-spn-kjpaw_psl.1.0.0.UPF: wavefunction(s)  3P 3D renormalized
     Message from routine setup:
     using ibrav=0 with symmetry is DISCOURAGED, use correct ibrav instead

     K-points division:     npool     =       8
     R & G space division:  proc/nbgrp/npool/nimage =      16
     Subspace diagonalization in iterative solution of the eigenvalue problem:
     one sub-group per band group will be used
     ELPA distributed-memory algorithm (size of sub-group:  4*  4 procs)


     Parallelization info
     --------------------
     sticks:   dense  smooth     PW     G-vecs:    dense   smooth      PW
     Min        1420     473    126               161001    30976    4292
     Max        1422     475    127               161002    30980    4295
     Sum       22725    7589   2025              2576031   495639   68699

     Using Slab Decomposition



     bravais-lattice index     =            0
     lattice parameter (alat)  =      16.2598  a.u.
     unit-cell volume          =    4298.7603 (a.u.)^3
     number of atoms/cell      =           53
     number of atomic types    =            1
     number of electrons       =       848.00
     number of Kohn-Sham states=          509
     kinetic-energy cutoff     =      90.0000  Ry
     charge density cutoff     =    1080.0000  Ry
     scf convergence threshold =      1.0E-08
     mixing beta               =       0.2000
     number of iterations used =            8  plain     mixing
     Exchange-correlation= SLA  PW   PBX  PBC
                           (   1   4   3   4   0   0   0)

     celldm(1)=  16.259770  celldm(2)=   0.000000  celldm(3)=   0.000000
     celldm(4)=   0.000000  celldm(5)=   0.000000  celldm(6)=   0.000000

     crystal axes: (cart. coord. in units of alat)
               a(1) = (   1.000000   0.000000   0.000000 )  
               a(2) = (   0.000000   1.000000   0.000000 )  
               a(3) = (   0.000000   0.000000   1.000000 )  

     reciprocal axes: (cart. coord. in units 2 pi/alat)
               b(1) = (  1.000000  0.000000  0.000000 )  
               b(2) = (  0.000000  1.000000  0.000000 )  
               b(3) = (  0.000000  0.000000  1.000000 )  


     PseudoPot. # 1 for Fe read from file:
     ./pseudo/Fe.pbe-spn-kjpaw_psl.1.0.0.UPF
     MD5 check sum: fc81f059e5c5069939230b1155715ae8
     Pseudo is Projector augmented-wave + core cor, Zval = 16.0
     Generated using &quot;atomic&quot; code by A. Dal Corso  v.6.3
     Shape of augmentation charge: PSQ
     Using radial grid of 1191 points,  6 beta functions with: 
                l(1) =   0
                l(2) =   0
                l(3) =   1
                l(4) =   1
                l(5) =   2
                l(6) =   2
     Q(r) pseudized with 0 coefficients 


     atomic species   valence    mass     pseudopotential
     Fe               16.00    55.84500     Fe( 1.00)

     Starting magnetic structure 
     atomic species   magnetization
     Fe              0.400

     48 Sym. Ops., with inversion, found (42 have fractional translation)


                                    s                        frac. trans.

      isym =  1     identity                                     

 cryst.   s( 1) = (     1          0          0      )
                  (     0          1          0      )
                  (     0          0          1      )

 cart.    s( 1) = (  1.0000000  0.0000000  0.0000000 )
                  (  0.0000000  1.0000000  0.0000000 )
                  (  0.0000000  0.0000000  1.0000000 )


      isym =  2     180 deg rotation - cart. axis [0,0,1]        

 cryst.   s( 2) = (    -1          0          0      )    f =(  0.3333333 )
                  (     0         -1          0      )       (  0.3333333 )
                  (     0          0          1      )       (  0.0000000 )

 cart.    s( 2) = ( -1.0000000  0.0000000  0.0000000 )    f =(  0.3333333 )
                  (  0.0000000 -1.0000000  0.0000000 )       (  0.3333333 )
                  (  0.0000000  0.0000000  1.0000000 )       (  0.0000000 )


      isym =  3     180 deg rotation - cart. axis [0,1,0]        

 cryst.   s( 3) = (    -1          0          0      )    f =(  0.3333333 )
                  (     0          1          0      )       (  0.0000000 )
                  (     0          0         -1      )       (  0.3333333 )

 cart.    s( 3) = ( -1.0000000  0.0000000  0.0000000 )    f =(  0.3333333 )
                  (  0.0000000  1.0000000  0.0000000 )       (  0.0000000 )
                  (  0.0000000  0.0000000 -1.0000000 )       (  0.3333333 )


      isym =  4     180 deg rotation - cart. axis [1,0,0]        

 cryst.   s( 4) = (     1          0          0      )    f =(  0.0000000 )
                  (     0         -1          0      )       (  0.3333333 )
                  (     0          0         -1      )       (  0.3333333 )

 cart.    s( 4) = (  1.0000000  0.0000000  0.0000000 )    f =(  0.0000000 )
                  (  0.0000000 -1.0000000  0.0000000 )       (  0.3333333 )
                  (  0.0000000  0.0000000 -1.0000000 )       (  0.3333333 )


      isym =  5     180 deg rotation - cart. axis [1,1,0]        

 cryst.   s( 5) = (     0          1          0      )    f =(  0.0000000 )
                  (     1          0          0      )       (  0.0000000 )
                  (     0          0         -1      )       (  0.3333333 )

 cart.    s( 5) = (  0.0000000  1.0000000  0.0000000 )    f =(  0.0000000 )
                  (  1.0000000  0.0000000  0.0000000 )       (  0.0000000 )
                  (  0.0000000  0.0000000 -1.0000000 )       (  0.3333333 )


      isym =  6     180 deg rotation - cart. axis [1,-1,0]       

 cryst.   s( 6) = (     0         -1          0      )    f =(  0.3333333 )
                  (    -1          0          0      )       (  0.3333333 )
                  (     0          0         -1      )       (  0.3333333 )

 cart.    s( 6) = (  0.0000000 -1.0000000  0.0000000 )    f =(  0.3333333 )
                  ( -1.0000000  0.0000000  0.0000000 )       (  0.3333333 )
                  (  0.0000000  0.0000000 -1.0000000 )       (  0.3333333 )


      isym =  7      90 deg rotation - cart. axis [0,0,-1]       

 cryst.   s( 7) = (     0         -1          0      )    f =(  0.0000000 )
                  (     1          0          0      )       (  0.3333333 )
                  (     0          0          1      )       (  0.0000000 )

 cart.    s( 7) = (  0.0000000  1.0000000  0.0000000 )    f =(  0.0000000 )
                  ( -1.0000000  0.0000000  0.0000000 )       (  0.3333333 )
                  (  0.0000000  0.0000000  1.0000000 )       (  0.0000000 )


      isym =  8      90 deg rotation - cart. axis [0,0,1]        

 cryst.   s( 8) = (     0          1          0      )    f =(  0.3333333 )
                  (    -1          0          0      )       (  0.0000000 )
                  (     0          0          1      )       (  0.0000000 )

 cart.    s( 8) = (  0.0000000 -1.0000000  0.0000000 )    f =(  0.3333333 )
                  (  1.0000000  0.0000000  0.0000000 )       (  0.0000000 )
                  (  0.0000000  0.0000000  1.0000000 )       (  0.0000000 )


      isym =  9     180 deg rotation - cart. axis [1,0,1]        

 cryst.   s( 9) = (     0          0          1      )    f =(  0.0000000 )
                  (     0         -1          0      )       (  0.3333333 )
                  (     1          0          0      )       (  0.0000000 )

 cart.    s( 9) = (  0.0000000  0.0000000  1.0000000 )    f =(  0.0000000 )
                  (  0.0000000 -1.0000000  0.0000000 )       (  0.3333333 )
                  (  1.0000000  0.0000000  0.0000000 )       (  0.0000000 )


      isym = 10     180 deg rotation - cart. axis [-1,0,1]       

 cryst.   s(10) = (     0          0         -1      )    f =(  0.3333333 )
                  (     0         -1          0      )       (  0.3333333 )
                  (    -1          0          0      )       (  0.3333333 )

 cart.    s(10) = (  0.0000000  0.0000000 -1.0000000 )    f =(  0.3333333 )
                  (  0.0000000 -1.0000000  0.0000000 )       (  0.3333333 )
                  ( -1.0000000  0.0000000  0.0000000 )       (  0.3333333 )


      isym = 11      90 deg rotation - cart. axis [0,1,0]        

 cryst.   s(11) = (     0          0         -1      )    f =(  0.0000000 )
                  (     0          1          0      )       (  0.0000000 )
                  (     1          0          0      )       (  0.3333333 )

 cart.    s(11) = (  0.0000000  0.0000000  1.0000000 )    f =(  0.0000000 )
                  (  0.0000000  1.0000000  0.0000000 )       (  0.0000000 )
                  ( -1.0000000  0.0000000  0.0000000 )       (  0.3333333 )


      isym = 12      90 deg rotation - cart. axis [0,-1,0]       

 cryst.   s(12) = (     0          0          1      )    f =(  0.3333333 )
                  (     0          1          0      )       (  0.0000000 )
                  (    -1          0          0      )       (  0.0000000 )

 cart.    s(12) = (  0.0000000  0.0000000 -1.0000000 )    f =(  0.3333333 )
                  (  0.0000000  1.0000000  0.0000000 )       (  0.0000000 )
                  (  1.0000000  0.0000000  0.0000000 )       (  0.0000000 )


      isym = 13     180 deg rotation - cart. axis [0,1,1]        

 cryst.   s(13) = (    -1          0          0      )    f =(  0.3333333 )
                  (     0          0          1      )       (  0.0000000 )
                  (     0          1          0      )       (  0.0000000 )

 cart.    s(13) = ( -1.0000000  0.0000000  0.0000000 )    f =(  0.3333333 )
                  (  0.0000000  0.0000000  1.0000000 )       (  0.0000000 )
                  (  0.0000000  1.0000000  0.0000000 )       (  0.0000000 )


      isym = 14     180 deg rotation - cart. axis [0,1,-1]       

 cryst.   s(14) = (    -1          0          0      )    f =(  0.3333333 )
                  (     0          0         -1      )       (  0.3333333 )
                  (     0         -1          0      )       (  0.3333333 )

 cart.    s(14) = ( -1.0000000  0.0000000  0.0000000 )    f =(  0.3333333 )
                  (  0.0000000  0.0000000 -1.0000000 )       (  0.3333333 )
                  (  0.0000000 -1.0000000  0.0000000 )       (  0.3333333 )


      isym = 15      90 deg rotation - cart. axis [-1,0,0]       

 cryst.   s(15) = (     1          0          0      )    f =(  0.0000000 )
                  (     0          0         -1      )       (  0.0000000 )
                  (     0          1          0      )       (  0.3333333 )

 cart.    s(15) = (  1.0000000  0.0000000  0.0000000 )    f =(  0.0000000 )
                  (  0.0000000  0.0000000  1.0000000 )       (  0.0000000 )
                  (  0.0000000 -1.0000000  0.0000000 )       (  0.3333333 )


      isym = 16      90 deg rotation - cart. axis [1,0,0]        

 cryst.   s(16) = (     1          0          0      )    f =(  0.0000000 )
                  (     0          0          1      )       (  0.3333333 )
                  (     0         -1          0      )       (  0.0000000 )

 cart.    s(16) = (  1.0000000  0.0000000  0.0000000 )    f =(  0.0000000 )
                  (  0.0000000  0.0000000 -1.0000000 )       (  0.3333333 )
                  (  0.0000000  1.0000000  0.0000000 )       (  0.0000000 )


      isym = 17     120 deg rotation - cart. axis [-1,-1,-1]     

 cryst.   s(17) = (     0          0          1      )
                  (     1          0          0      )
                  (     0          1          0      )

 cart.    s(17) = (  0.0000000  1.0000000  0.0000000 )
                  (  0.0000000  0.0000000  1.0000000 )
                  (  1.0000000  0.0000000  0.0000000 )


      isym = 18     120 deg rotation - cart. axis [-1,1,1]       

 cryst.   s(18) = (     0          0         -1      )    f =(  0.3333333 )
                  (    -1          0          0      )       (  0.0000000 )
                  (     0          1          0      )       (  0.3333333 )

 cart.    s(18) = (  0.0000000 -1.0000000  0.0000000 )    f =(  0.3333333 )
                  (  0.0000000  0.0000000  1.0000000 )       (  0.0000000 )
                  ( -1.0000000  0.0000000  0.0000000 )       (  0.3333333 )


      isym = 19     120 deg rotation - cart. axis [1,1,-1]       

 cryst.   s(19) = (     0          0         -1      )    f =(  0.0000000 )
                  (     1          0          0      )       (  0.3333333 )
                  (     0         -1          0      )       (  0.3333333 )

 cart.    s(19) = (  0.0000000  1.0000000  0.0000000 )    f =(  0.0000000 )
                  (  0.0000000  0.0000000 -1.0000000 )       (  0.3333333 )
                  ( -1.0000000  0.0000000  0.0000000 )       (  0.3333333 )


      isym = 20     120 deg rotation - cart. axis [1,-1,1]       

 cryst.   s(20) = (     0          0          1      )    f =(  0.3333333 )
                  (    -1          0          0      )       (  0.3333333 )
                  (     0         -1          0      )       (  0.0000000 )

 cart.    s(20) = (  0.0000000 -1.0000000  0.0000000 )    f =(  0.3333333 )
                  (  0.0000000  0.0000000 -1.0000000 )       (  0.3333333 )
                  (  1.0000000  0.0000000  0.0000000 )       (  0.0000000 )


      isym = 21     120 deg rotation - cart. axis [1,1,1]        

 cryst.   s(21) = (     0          1          0      )
                  (     0          0          1      )
                  (     1          0          0      )

 cart.    s(21) = (  0.0000000  0.0000000  1.0000000 )
                  (  1.0000000  0.0000000  0.0000000 )
                  (  0.0000000  1.0000000  0.0000000 )


      isym = 22     120 deg rotation - cart. axis [-1,1,-1]      

 cryst.   s(22) = (     0         -1          0      )    f =(  0.0000000 )
                  (     0          0         -1      )       (  0.3333333 )
                  (     1          0          0      )       (  0.3333333 )

 cart.    s(22) = (  0.0000000  0.0000000  1.0000000 )    f =(  0.0000000 )
                  ( -1.0000000  0.0000000  0.0000000 )       (  0.3333333 )
                  (  0.0000000 -1.0000000  0.0000000 )       (  0.3333333 )


      isym = 23     120 deg rotation - cart. axis [1,-1,-1]      

 cryst.   s(23) = (     0         -1          0      )    f =(  0.3333333 )
                  (     0          0          1      )       (  0.3333333 )
                  (    -1          0          0      )       (  0.0000000 )

 cart.    s(23) = (  0.0000000  0.0000000 -1.0000000 )    f =(  0.3333333 )
                  ( -1.0000000  0.0000000  0.0000000 )       (  0.3333333 )
                  (  0.0000000  1.0000000  0.0000000 )       (  0.0000000 )


      isym = 24     120 deg rotation - cart. axis [-1,-1,1]      

 cryst.   s(24) = (     0          1          0      )    f =(  0.3333333 )
                  (     0          0         -1      )       (  0.0000000 )
                  (    -1          0          0      )       (  0.3333333 )

 cart.    s(24) = (  0.0000000  0.0000000 -1.0000000 )    f =(  0.3333333 )
                  (  1.0000000  0.0000000  0.0000000 )       (  0.0000000 )
                  (  0.0000000 -1.0000000  0.0000000 )       (  0.3333333 )


      isym = 25     inversion                                    

 cryst.   s(25) = (    -1          0          0      )    f =(  0.3333333 )
                  (     0         -1          0      )       (  0.3333333 )
                  (     0          0         -1      )       (  0.3333333 )

 cart.    s(25) = ( -1.0000000  0.0000000  0.0000000 )    f =(  0.3333333 )
                  (  0.0000000 -1.0000000  0.0000000 )       (  0.3333333 )
                  (  0.0000000  0.0000000 -1.0000000 )       (  0.3333333 )


      isym = 26     inv. 180 deg rotation - cart. axis [0,0,1]   

 cryst.   s(26) = (     1          0          0      )    f =(  0.0000000 )
                  (     0          1          0      )       (  0.0000000 )
                  (     0          0         -1      )       (  0.3333333 )

 cart.    s(26) = (  1.0000000  0.0000000  0.0000000 )    f =(  0.0000000 )
                  (  0.0000000  1.0000000  0.0000000 )       (  0.0000000 )
                  (  0.0000000  0.0000000 -1.0000000 )       (  0.3333333 )


      isym = 27     inv. 180 deg rotation - cart. axis [0,1,0]   

 cryst.   s(27) = (     1          0          0      )    f =(  0.0000000 )
                  (     0         -1          0      )       (  0.3333333 )
                  (     0          0          1      )       (  0.0000000 )

 cart.    s(27) = (  1.0000000  0.0000000  0.0000000 )    f =(  0.0000000 )
                  (  0.0000000 -1.0000000  0.0000000 )       (  0.3333333 )
                  (  0.0000000  0.0000000  1.0000000 )       (  0.0000000 )


      isym = 28     inv. 180 deg rotation - cart. axis [1,0,0]   

 cryst.   s(28) = (    -1          0          0      )    f =(  0.3333333 )
                  (     0          1          0      )       (  0.0000000 )
                  (     0          0          1      )       (  0.0000000 )

 cart.    s(28) = ( -1.0000000  0.0000000  0.0000000 )    f =(  0.3333333 )
                  (  0.0000000  1.0000000  0.0000000 )       (  0.0000000 )
                  (  0.0000000  0.0000000  1.0000000 )       (  0.0000000 )


      isym = 29     inv. 180 deg rotation - cart. axis [1,1,0]   

 cryst.   s(29) = (     0         -1          0      )    f =(  0.3333333 )
                  (    -1          0          0      )       (  0.3333333 )
                  (     0          0          1      )       (  0.0000000 )

 cart.    s(29) = (  0.0000000 -1.0000000  0.0000000 )    f =(  0.3333333 )
                  ( -1.0000000  0.0000000  0.0000000 )       (  0.3333333 )
                  (  0.0000000  0.0000000  1.0000000 )       (  0.0000000 )


      isym = 30     inv. 180 deg rotation - cart. axis [1,-1,0]  

 cryst.   s(30) = (     0          1          0      )
                  (     1          0          0      )
                  (     0          0          1      )

 cart.    s(30) = (  0.0000000  1.0000000  0.0000000 )
                  (  1.0000000  0.0000000  0.0000000 )
                  (  0.0000000  0.0000000  1.0000000 )


      isym = 31     inv.  90 deg rotation - cart. axis [0,0,-1]  

 cryst.   s(31) = (     0          1          0      )    f =(  0.3333333 )
                  (    -1          0          0      )       (  0.0000000 )
                  (     0          0         -1      )       (  0.3333333 )

 cart.    s(31) = (  0.0000000 -1.0000000  0.0000000 )    f =(  0.3333333 )
                  (  1.0000000  0.0000000  0.0000000 )       (  0.0000000 )
                  (  0.0000000  0.0000000 -1.0000000 )       (  0.3333333 )


      isym = 32     inv.  90 deg rotation - cart. axis [0,0,1]   

 cryst.   s(32) = (     0         -1          0      )    f =(  0.0000000 )
                  (     1          0          0      )       (  0.3333333 )
                  (     0          0         -1      )       (  0.3333333 )

 cart.    s(32) = (  0.0000000  1.0000000  0.0000000 )    f =(  0.0000000 )
                  ( -1.0000000  0.0000000  0.0000000 )       (  0.3333333 )
                  (  0.0000000  0.0000000 -1.0000000 )       (  0.3333333 )


      isym = 33     inv. 180 deg rotation - cart. axis [1,0,1]   

 cryst.   s(33) = (     0          0         -1      )    f =(  0.3333333 )
                  (     0          1          0      )       (  0.0000000 )
                  (    -1          0          0      )       (  0.3333333 )

 cart.    s(33) = (  0.0000000  0.0000000 -1.0000000 )    f =(  0.3333333 )
                  (  0.0000000  1.0000000  0.0000000 )       (  0.0000000 )
                  ( -1.0000000  0.0000000  0.0000000 )       (  0.3333333 )


      isym = 34     inv. 180 deg rotation - cart. axis [-1,0,1]  

 cryst.   s(34) = (     0          0          1      )
                  (     0          1          0      )
                  (     1          0          0      )

 cart.    s(34) = (  0.0000000  0.0000000  1.0000000 )
                  (  0.0000000  1.0000000  0.0000000 )
                  (  1.0000000  0.0000000  0.0000000 )


      isym = 35     inv.  90 deg rotation - cart. axis [0,1,0]   

 cryst.   s(35) = (     0          0          1      )    f =(  0.3333333 )
                  (     0         -1          0      )       (  0.3333333 )
                  (    -1          0          0      )       (  0.0000000 )

 cart.    s(35) = (  0.0000000  0.0000000 -1.0000000 )    f =(  0.3333333 )
                  (  0.0000000 -1.0000000  0.0000000 )       (  0.3333333 )
                  (  1.0000000  0.0000000  0.0000000 )       (  0.0000000 )


      isym = 36     inv.  90 deg rotation - cart. axis [0,-1,0]  

 cryst.   s(36) = (     0          0         -1      )    f =(  0.0000000 )
                  (     0         -1          0      )       (  0.3333333 )
                  (     1          0          0      )       (  0.3333333 )

 cart.    s(36) = (  0.0000000  0.0000000  1.0000000 )    f =(  0.0000000 )
                  (  0.0000000 -1.0000000  0.0000000 )       (  0.3333333 )
                  ( -1.0000000  0.0000000  0.0000000 )       (  0.3333333 )


      isym = 37     inv. 180 deg rotation - cart. axis [0,1,1]   

 cryst.   s(37) = (     1          0          0      )    f =(  0.0000000 )
                  (     0          0         -1      )       (  0.3333333 )
                  (     0         -1          0      )       (  0.3333333 )

 cart.    s(37) = (  1.0000000  0.0000000  0.0000000 )    f =(  0.0000000 )
                  (  0.0000000  0.0000000 -1.0000000 )       (  0.3333333 )
                  (  0.0000000 -1.0000000  0.0000000 )       (  0.3333333 )


      isym = 38     inv. 180 deg rotation - cart. axis [0,1,-1]  

 cryst.   s(38) = (     1          0          0      )
                  (     0          0          1      )
                  (     0          1          0      )

 cart.    s(38) = (  1.0000000  0.0000000  0.0000000 )
                  (  0.0000000  0.0000000  1.0000000 )
                  (  0.0000000  1.0000000  0.0000000 )


      isym = 39     inv.  90 deg rotation - cart. axis [-1,0,0]  

 cryst.   s(39) = (    -1          0          0      )    f =(  0.3333333 )
                  (     0          0          1      )       (  0.3333333 )
                  (     0         -1          0      )       (  0.0000000 )

 cart.    s(39) = ( -1.0000000  0.0000000  0.0000000 )    f =(  0.3333333 )
                  (  0.0000000  0.0000000 -1.0000000 )       (  0.3333333 )
                  (  0.0000000  1.0000000  0.0000000 )       (  0.0000000 )


      isym = 40     inv.  90 deg rotation - cart. axis [1,0,0]   

 cryst.   s(40) = (    -1          0          0      )    f =(  0.3333333 )
                  (     0          0         -1      )       (  0.0000000 )
                  (     0          1          0      )       (  0.3333333 )

 cart.    s(40) = ( -1.0000000  0.0000000  0.0000000 )    f =(  0.3333333 )
                  (  0.0000000  0.0000000  1.0000000 )       (  0.0000000 )
                  (  0.0000000 -1.0000000  0.0000000 )       (  0.3333333 )


      isym = 41     inv. 120 deg rotation - cart. axis [-1,-1,-1]

 cryst.   s(41) = (     0          0         -1      )    f =(  0.3333333 )
                  (    -1          0          0      )       (  0.3333333 )
                  (     0         -1          0      )       (  0.3333333 )

 cart.    s(41) = (  0.0000000 -1.0000000  0.0000000 )    f =(  0.3333333 )
                  (  0.0000000  0.0000000 -1.0000000 )       (  0.3333333 )
                  ( -1.0000000  0.0000000  0.0000000 )       (  0.3333333 )


      isym = 42     inv. 120 deg rotation - cart. axis [-1,1,1]  

 cryst.   s(42) = (     0          0          1      )    f =(  0.0000000 )
                  (     1          0          0      )       (  0.3333333 )
                  (     0         -1          0      )       (  0.0000000 )

 cart.    s(42) = (  0.0000000  1.0000000  0.0000000 )    f =(  0.0000000 )
                  (  0.0000000  0.0000000 -1.0000000 )       (  0.3333333 )
                  (  1.0000000  0.0000000  0.0000000 )       (  0.0000000 )


      isym = 43     inv. 120 deg rotation - cart. axis [1,1,-1]  

 cryst.   s(43) = (     0          0          1      )    f =(  0.3333333 )
                  (    -1          0          0      )       (  0.0000000 )
                  (     0          1          0      )       (  0.0000000 )

 cart.    s(43) = (  0.0000000 -1.0000000  0.0000000 )    f =(  0.3333333 )
                  (  0.0000000  0.0000000  1.0000000 )       (  0.0000000 )
                  (  1.0000000  0.0000000  0.0000000 )       (  0.0000000 )


      isym = 44     inv. 120 deg rotation - cart. axis [1,-1,1]  

 cryst.   s(44) = (     0          0         -1      )    f =(  0.0000000 )
                  (     1          0          0      )       (  0.0000000 )
                  (     0          1          0      )       (  0.3333333 )

 cart.    s(44) = (  0.0000000  1.0000000  0.0000000 )    f =(  0.0000000 )
                  (  0.0000000  0.0000000  1.0000000 )       (  0.0000000 )
                  ( -1.0000000  0.0000000  0.0000000 )       (  0.3333333 )


      isym = 45     inv. 120 deg rotation - cart. axis [1,1,1]   

 cryst.   s(45) = (     0         -1          0      )    f =(  0.3333333 )
                  (     0          0         -1      )       (  0.3333333 )
                  (    -1          0          0      )       (  0.3333333 )

 cart.    s(45) = (  0.0000000  0.0000000 -1.0000000 )    f =(  0.3333333 )
                  ( -1.0000000  0.0000000  0.0000000 )       (  0.3333333 )
                  (  0.0000000 -1.0000000  0.0000000 )       (  0.3333333 )


      isym = 46     inv. 120 deg rotation - cart. axis [-1,1,-1] 

 cryst.   s(46) = (     0          1          0      )    f =(  0.3333333 )
                  (     0          0          1      )       (  0.0000000 )
                  (    -1          0          0      )       (  0.0000000 )

 cart.    s(46) = (  0.0000000  0.0000000 -1.0000000 )    f =(  0.3333333 )
                  (  1.0000000  0.0000000  0.0000000 )       (  0.0000000 )
                  (  0.0000000  1.0000000  0.0000000 )       (  0.0000000 )


      isym = 47     inv. 120 deg rotation - cart. axis [1,-1,-1] 

 cryst.   s(47) = (     0          1          0      )    f =(  0.0000000 )
                  (     0          0         -1      )       (  0.0000000 )
                  (     1          0          0      )       (  0.3333333 )

 cart.    s(47) = (  0.0000000  0.0000000  1.0000000 )    f =(  0.0000000 )
                  (  1.0000000  0.0000000  0.0000000 )       (  0.0000000 )
                  (  0.0000000 -1.0000000  0.0000000 )       (  0.3333333 )


      isym = 48     inv. 120 deg rotation - cart. axis [-1,-1,1] 

 cryst.   s(48) = (     0         -1          0      )    f =(  0.0000000 )
                  (     0          0          1      )       (  0.3333333 )
                  (     1          0          0      )       (  0.0000000 )

 cart.    s(48) = (  0.0000000  0.0000000  1.0000000 )    f =(  0.0000000 )
                  ( -1.0000000  0.0000000  0.0000000 )       (  0.3333333 )
                  (  0.0000000  1.0000000  0.0000000 )       (  0.0000000 )


   Cartesian axes

     site n.     atom                  positions (alat units)
         1        Fe     tau(   1) = (  -0.0001311  -0.0001311  -0.0001311  )
         2        Fe     tau(   2) = (   0.1718297   0.1718297   0.1718297  )
         3        Fe     tau(   3) = (   0.0011020   0.0011020   0.3333333  )
         4        Fe     tau(   4) = (   0.1718297   0.1718297   0.4948370  )
         5        Fe     tau(   5) = (  -0.0001311  -0.0001311   0.6667977  )
         6        Fe     tau(   6) = (   0.1662001   0.1662001   0.8333333  )
         7        Fe     tau(   7) = (   0.0011020   0.3333333   0.0011020  )
         8        Fe     tau(   8) = (   0.1718297   0.4948370   0.1718297  )
         9        Fe     tau(   9) = (  -0.0041721   0.3333333   0.3333333  )
        10        Fe     tau(  10) = (   0.1718297   0.4948370   0.4948370  )
        11        Fe     tau(  11) = (   0.0011020   0.3333333   0.6655646  )
        12        Fe     tau(  12) = (   0.1662001   0.5004666   0.8333333  )
        13        Fe     tau(  13) = (  -0.0001311   0.6667977  -0.0001311  )
        14        Fe     tau(  14) = (   0.1662001   0.8333333   0.1662001  )
        15        Fe     tau(  15) = (   0.0011020   0.6655646   0.3333333  )
        16        Fe     tau(  16) = (   0.1662001   0.8333333   0.5004666  )
        17        Fe     tau(  17) = (  -0.0001311   0.6667977   0.6667977  )
        18        Fe     tau(  18) = (   0.1676096   0.8333333   0.8333333  )
        19        Fe     tau(  19) = (   0.3333333   0.0011020   0.0011020  )
        20        Fe     tau(  20) = (   0.4948370   0.1718297   0.1718297  )
        21        Fe     tau(  21) = (   0.3333333  -0.0041721   0.3333333  )
        22        Fe     tau(  22) = (   0.4948370   0.1718297   0.4948370  )
        23        Fe     tau(  23) = (   0.3333333   0.0011020   0.6655646  )
        24        Fe     tau(  24) = (   0.5004666   0.1662001   0.8333333  )
        25        Fe     tau(  25) = (   0.3333333   0.3333333  -0.0041721  )
        26        Fe     tau(  26) = (   0.4948370   0.4948370   0.1718297  )
        27        Fe     tau(  27) = (   0.4948370   0.4948370   0.4948370  )
        28        Fe     tau(  28) = (   0.3333333   0.3333333   0.6708387  )
        29        Fe     tau(  29) = (   0.5004666   0.5004666   0.8333333  )
        30        Fe     tau(  30) = (   0.3333333   0.6655646   0.0011020  )
        31        Fe     tau(  31) = (   0.5004666   0.8333333   0.1662001  )
        32        Fe     tau(  32) = (   0.3333333   0.6708387   0.3333333  )
        33        Fe     tau(  33) = (   0.5004666   0.8333333   0.5004666  )
        34        Fe     tau(  34) = (   0.3333333   0.6655646   0.6655646  )
        35        Fe     tau(  35) = (   0.4990571   0.8333333   0.8333333  )
        36        Fe     tau(  36) = (   0.6667977  -0.0001311  -0.0001311  )
        37        Fe     tau(  37) = (   0.8333333   0.1662001   0.1662001  )
        38        Fe     tau(  38) = (   0.6655646   0.0011020   0.3333333  )
        39        Fe     tau(  39) = (   0.8333333   0.1662001   0.5004666  )
        40        Fe     tau(  40) = (   0.6667977  -0.0001311   0.6667977  )
        41        Fe     tau(  41) = (   0.8333333   0.1676096   0.8333333  )
        42        Fe     tau(  42) = (   0.6655646   0.3333333   0.0011020  )
        43        Fe     tau(  43) = (   0.8333333   0.5004666   0.1662001  )
        44        Fe     tau(  44) = (   0.6708387   0.3333333   0.3333333  )
        45        Fe     tau(  45) = (   0.8333333   0.5004666   0.5004666  )
        46        Fe     tau(  46) = (   0.6655646   0.3333333   0.6655646  )
        47        Fe     tau(  47) = (   0.8333333   0.4990571   0.8333333  )
        48        Fe     tau(  48) = (   0.6667977   0.6667977  -0.0001311  )
        49        Fe     tau(  49) = (   0.8333333   0.8333333   0.1676096  )
        50        Fe     tau(  50) = (   0.6655646   0.6655646   0.3333333  )
        51        Fe     tau(  51) = (   0.8333333   0.8333333   0.4990571  )
        52        Fe     tau(  52) = (   0.6667977   0.6667977   0.6667977  )
        53        Fe     tau(  53) = (   0.8333333   0.8333333   0.8333333  )

   Crystallographic axes

     site n.     atom                  positions (cryst. coord.)
         1        Fe     tau(   1) = ( -0.0001311 -0.0001311 -0.0001311  )
         2        Fe     tau(   2) = (  0.1718297  0.1718297  0.1718297  )
         3        Fe     tau(   3) = (  0.0011020  0.0011020  0.3333333  )
         4        Fe     tau(   4) = (  0.1718297  0.1718297  0.4948370  )
         5        Fe     tau(   5) = ( -0.0001311 -0.0001311  0.6667977  )
         6        Fe     tau(   6) = (  0.1662001  0.1662001  0.8333333  )
         7        Fe     tau(   7) = (  0.0011020  0.3333333  0.0011020  )
         8        Fe     tau(   8) = (  0.1718297  0.4948370  0.1718297  )
         9        Fe     tau(   9) = ( -0.0041721  0.3333333  0.3333333  )
        10        Fe     tau(  10) = (  0.1718297  0.4948370  0.4948370  )
        11        Fe     tau(  11) = (  0.0011020  0.3333333  0.6655646  )
        12        Fe     tau(  12) = (  0.1662001  0.5004666  0.8333333  )
        13        Fe     tau(  13) = ( -0.0001311  0.6667977 -0.0001311  )
        14        Fe     tau(  14) = (  0.1662001  0.8333333  0.1662001  )
        15        Fe     tau(  15) = (  0.0011020  0.6655646  0.3333333  )
        16        Fe     tau(  16) = (  0.1662001  0.8333333  0.5004666  )
        17        Fe     tau(  17) = ( -0.0001311  0.6667977  0.6667977  )
        18        Fe     tau(  18) = (  0.1676096  0.8333333  0.8333333  )
        19        Fe     tau(  19) = (  0.3333333  0.0011020  0.0011020  )
        20        Fe     tau(  20) = (  0.4948370  0.1718297  0.1718297  )
        21        Fe     tau(  21) = (  0.3333333 -0.0041721  0.3333333  )
        22        Fe     tau(  22) = (  0.4948370  0.1718297  0.4948370  )
        23        Fe     tau(  23) = (  0.3333333  0.0011020  0.6655646  )
        24        Fe     tau(  24) = (  0.5004666  0.1662001  0.8333333  )
        25        Fe     tau(  25) = (  0.3333333  0.3333333 -0.0041721  )
        26        Fe     tau(  26) = (  0.4948370  0.4948370  0.1718297  )
        27        Fe     tau(  27) = (  0.4948370  0.4948370  0.4948370  )
        28        Fe     tau(  28) = (  0.3333333  0.3333333  0.6708387  )
        29        Fe     tau(  29) = (  0.5004666  0.5004666  0.8333333  )
        30        Fe     tau(  30) = (  0.3333333  0.6655646  0.0011020  )
        31        Fe     tau(  31) = (  0.5004666  0.8333333  0.1662001  )
        32        Fe     tau(  32) = (  0.3333333  0.6708387  0.3333333  )
        33        Fe     tau(  33) = (  0.5004666  0.8333333  0.5004666  )
        34        Fe     tau(  34) = (  0.3333333  0.6655646  0.6655646  )
        35        Fe     tau(  35) = (  0.4990571  0.8333333  0.8333333  )
        36        Fe     tau(  36) = (  0.6667977 -0.0001311 -0.0001311  )
        37        Fe     tau(  37) = (  0.8333333  0.1662001  0.1662001  )
        38        Fe     tau(  38) = (  0.6655646  0.0011020  0.3333333  )
        39        Fe     tau(  39) = (  0.8333333  0.1662001  0.5004666  )
        40        Fe     tau(  40) = (  0.6667977 -0.0001311  0.6667977  )
        41        Fe     tau(  41) = (  0.8333333  0.1676096  0.8333333  )
        42        Fe     tau(  42) = (  0.6655646  0.3333333  0.0011020  )
        43        Fe     tau(  43) = (  0.8333333  0.5004666  0.1662001  )
        44        Fe     tau(  44) = (  0.6708387  0.3333333  0.3333333  )
        45        Fe     tau(  45) = (  0.8333333  0.5004666  0.5004666  )
        46        Fe     tau(  46) = (  0.6655646  0.3333333  0.6655646  )
        47        Fe     tau(  47) = (  0.8333333  0.4990571  0.8333333  )
        48        Fe     tau(  48) = (  0.6667977  0.6667977 -0.0001311  )
        49        Fe     tau(  49) = (  0.8333333  0.8333333  0.1676096  )
        50        Fe     tau(  50) = (  0.6655646  0.6655646  0.3333333  )
        51        Fe     tau(  51) = (  0.8333333  0.8333333  0.4990571  )
        52        Fe     tau(  52) = (  0.6667977  0.6667977  0.6667977  )
        53        Fe     tau(  53) = (  0.8333333  0.8333333  0.8333333  )

     number of k points=    56  Marzari-Vanderbilt smearing, width (Ry)=  0.0100
                       cart. coord. in units 2pi/alat
        k(    1) = (   0.0000000   0.0000000   0.0000000), wk =   0.0010000
        k(    2) = (   0.0000000   0.0000000   0.1000000), wk =   0.0060000
        k(    3) = (   0.0000000   0.0000000   0.2000000), wk =   0.0060000
        k(    4) = (   0.0000000   0.0000000   0.3000000), wk =   0.0060000
        k(    5) = (   0.0000000   0.0000000   0.4000000), wk =   0.0060000
        k(    6) = (   0.0000000   0.0000000  -0.5000000), wk =   0.0030000
        k(    7) = (   0.0000000   0.1000000   0.1000000), wk =   0.0120000
        k(    8) = (   0.0000000   0.1000000   0.2000000), wk =   0.0240000
        k(    9) = (   0.0000000   0.1000000   0.3000000), wk =   0.0240000
        k(   10) = (   0.0000000   0.1000000   0.4000000), wk =   0.0240000
        k(   11) = (   0.0000000   0.1000000  -0.5000000), wk =   0.0120000
        k(   12) = (   0.0000000   0.2000000   0.2000000), wk =   0.0120000
        k(   13) = (   0.0000000   0.2000000   0.3000000), wk =   0.0240000
        k(   14) = (   0.0000000   0.2000000   0.4000000), wk =   0.0240000
        k(   15) = (   0.0000000   0.2000000  -0.5000000), wk =   0.0120000
        k(   16) = (   0.0000000   0.3000000   0.3000000), wk =   0.0120000
        k(   17) = (   0.0000000   0.3000000   0.4000000), wk =   0.0240000
        k(   18) = (   0.0000000   0.3000000  -0.5000000), wk =   0.0120000
        k(   19) = (   0.0000000   0.4000000   0.4000000), wk =   0.0120000
        k(   20) = (   0.0000000   0.4000000  -0.5000000), wk =   0.0120000
        k(   21) = (   0.0000000  -0.5000000  -0.5000000), wk =   0.0030000
        k(   22) = (   0.1000000   0.1000000   0.1000000), wk =   0.0080000
        k(   23) = (   0.1000000   0.1000000   0.2000000), wk =   0.0240000
        k(   24) = (   0.1000000   0.1000000   0.3000000), wk =   0.0240000
        k(   25) = (   0.1000000   0.1000000   0.4000000), wk =   0.0240000
        k(   26) = (   0.1000000   0.1000000  -0.5000000), wk =   0.0120000
        k(   27) = (   0.1000000   0.2000000   0.2000000), wk =   0.0240000
        k(   28) = (   0.1000000   0.2000000   0.3000000), wk =   0.0480000
        k(   29) = (   0.1000000   0.2000000   0.4000000), wk =   0.0480000
        k(   30) = (   0.1000000   0.2000000  -0.5000000), wk =   0.0240000
        k(   31) = (   0.1000000   0.3000000   0.3000000), wk =   0.0240000
        k(   32) = (   0.1000000   0.3000000   0.4000000), wk =   0.0480000
        k(   33) = (   0.1000000   0.3000000  -0.5000000), wk =   0.0240000
        k(   34) = (   0.1000000   0.4000000   0.4000000), wk =   0.0240000
        k(   35) = (   0.1000000   0.4000000  -0.5000000), wk =   0.0240000
        k(   36) = (   0.1000000  -0.5000000  -0.5000000), wk =   0.0060000
        k(   37) = (   0.2000000   0.2000000   0.2000000), wk =   0.0080000
        k(   38) = (   0.2000000   0.2000000   0.3000000), wk =   0.0240000
        k(   39) = (   0.2000000   0.2000000   0.4000000), wk =   0.0240000
        k(   40) = (   0.2000000   0.2000000  -0.5000000), wk =   0.0120000
        k(   41) = (   0.2000000   0.3000000   0.3000000), wk =   0.0240000
        k(   42) = (   0.2000000   0.3000000   0.4000000), wk =   0.0480000
        k(   43) = (   0.2000000   0.3000000  -0.5000000), wk =   0.0240000
        k(   44) = (   0.2000000   0.4000000   0.4000000), wk =   0.0240000
        k(   45) = (   0.2000000   0.4000000  -0.5000000), wk =   0.0240000
        k(   46) = (   0.2000000  -0.5000000  -0.5000000), wk =   0.0060000
        k(   47) = (   0.3000000   0.3000000   0.3000000), wk =   0.0080000
        k(   48) = (   0.3000000   0.3000000   0.4000000), wk =   0.0240000
        k(   49) = (   0.3000000   0.3000000  -0.5000000), wk =   0.0120000
        k(   50) = (   0.3000000   0.4000000   0.4000000), wk =   0.0240000
        k(   51) = (   0.3000000   0.4000000  -0.5000000), wk =   0.0240000
        k(   52) = (   0.3000000  -0.5000000  -0.5000000), wk =   0.0060000
        k(   53) = (   0.4000000   0.4000000   0.4000000), wk =   0.0080000
        k(   54) = (   0.4000000   0.4000000  -0.5000000), wk =   0.0120000
        k(   55) = (   0.4000000  -0.5000000  -0.5000000), wk =   0.0060000
        k(   56) = (  -0.5000000  -0.5000000  -0.5000000), wk =   0.0010000

                       cryst. coord.
        k(    1) = (   0.0000000   0.0000000   0.0000000), wk =   0.0010000
        k(    2) = (   0.0000000   0.0000000   0.1000000), wk =   0.0060000
        k(    3) = (   0.0000000   0.0000000   0.2000000), wk =   0.0060000
        k(    4) = (   0.0000000   0.0000000   0.3000000), wk =   0.0060000
        k(    5) = (   0.0000000   0.0000000   0.4000000), wk =   0.0060000
        k(    6) = (   0.0000000   0.0000000  -0.5000000), wk =   0.0030000
        k(    7) = (   0.0000000   0.1000000   0.1000000), wk =   0.0120000
        k(    8) = (   0.0000000   0.1000000   0.2000000), wk =   0.0240000
        k(    9) = (   0.0000000   0.1000000   0.3000000), wk =   0.0240000
        k(   10) = (   0.0000000   0.1000000   0.4000000), wk =   0.0240000
        k(   11) = (   0.0000000   0.1000000  -0.5000000), wk =   0.0120000
        k(   12) = (   0.0000000   0.2000000   0.2000000), wk =   0.0120000
        k(   13) = (   0.0000000   0.2000000   0.3000000), wk =   0.0240000
        k(   14) = (   0.0000000   0.2000000   0.4000000), wk =   0.0240000
        k(   15) = (   0.0000000   0.2000000  -0.5000000), wk =   0.0120000
        k(   16) = (   0.0000000   0.3000000   0.3000000), wk =   0.0120000
        k(   17) = (   0.0000000   0.3000000   0.4000000), wk =   0.0240000
        k(   18) = (   0.0000000   0.3000000  -0.5000000), wk =   0.0120000
        k(   19) = (   0.0000000   0.4000000   0.4000000), wk =   0.0120000
        k(   20) = (   0.0000000   0.4000000  -0.5000000), wk =   0.0120000
        k(   21) = (   0.0000000  -0.5000000  -0.5000000), wk =   0.0030000
        k(   22) = (   0.1000000   0.1000000   0.1000000), wk =   0.0080000
        k(   23) = (   0.1000000   0.1000000   0.2000000), wk =   0.0240000
        k(   24) = (   0.1000000   0.1000000   0.3000000), wk =   0.0240000
        k(   25) = (   0.1000000   0.1000000   0.4000000), wk =   0.0240000
        k(   26) = (   0.1000000   0.1000000  -0.5000000), wk =   0.0120000
        k(   27) = (   0.1000000   0.2000000   0.2000000), wk =   0.0240000
        k(   28) = (   0.1000000   0.2000000   0.3000000), wk =   0.0480000
        k(   29) = (   0.1000000   0.2000000   0.4000000), wk =   0.0480000
        k(   30) = (   0.1000000   0.2000000  -0.5000000), wk =   0.0240000
        k(   31) = (   0.1000000   0.3000000   0.3000000), wk =   0.0240000
        k(   32) = (   0.1000000   0.3000000   0.4000000), wk =   0.0480000
        k(   33) = (   0.1000000   0.3000000  -0.5000000), wk =   0.0240000
        k(   34) = (   0.1000000   0.4000000   0.4000000), wk =   0.0240000
        k(   35) = (   0.1000000   0.4000000  -0.5000000), wk =   0.0240000
        k(   36) = (   0.1000000  -0.5000000  -0.5000000), wk =   0.0060000
        k(   37) = (   0.2000000   0.2000000   0.2000000), wk =   0.0080000
        k(   38) = (   0.2000000   0.2000000   0.3000000), wk =   0.0240000
        k(   39) = (   0.2000000   0.2000000   0.4000000), wk =   0.0240000
        k(   40) = (   0.2000000   0.2000000  -0.5000000), wk =   0.0120000
        k(   41) = (   0.2000000   0.3000000   0.3000000), wk =   0.0240000
        k(   42) = (   0.2000000   0.3000000   0.4000000), wk =   0.0480000
        k(   43) = (   0.2000000   0.3000000  -0.5000000), wk =   0.0240000
        k(   44) = (   0.2000000   0.4000000   0.4000000), wk =   0.0240000
        k(   45) = (   0.2000000   0.4000000  -0.5000000), wk =   0.0240000
        k(   46) = (   0.2000000  -0.5000000  -0.5000000), wk =   0.0060000
        k(   47) = (   0.3000000   0.3000000   0.3000000), wk =   0.0080000
        k(   48) = (   0.3000000   0.3000000   0.4000000), wk =   0.0240000
        k(   49) = (   0.3000000   0.3000000  -0.5000000), wk =   0.0120000
        k(   50) = (   0.3000000   0.4000000   0.4000000), wk =   0.0240000
        k(   51) = (   0.3000000   0.4000000  -0.5000000), wk =   0.0240000
        k(   52) = (   0.3000000  -0.5000000  -0.5000000), wk =   0.0060000
        k(   53) = (   0.4000000   0.4000000   0.4000000), wk =   0.0080000
        k(   54) = (   0.4000000   0.4000000  -0.5000000), wk =   0.0120000
        k(   55) = (   0.4000000  -0.5000000  -0.5000000), wk =   0.0060000
        k(   56) = (  -0.5000000  -0.5000000  -0.5000000), wk =   0.0010000

     Dense  grid:  2576031 G-vectors     FFT dimensions: ( 180, 180, 180)

     Smooth grid:   495639 G-vectors     FFT dimensions: ( 108, 108, 108)

     Dynamical RAM for                 wfc:      30.08 MB

     Dynamical RAM for     wfc (w. buffer):     451.21 MB

     Dynamical RAM for           str. fact:       2.46 MB

     Dynamical RAM for           local pot:       0.00 MB

     Dynamical RAM for          nlocal pot:      56.38 MB

     Dynamical RAM for                qrad:       2.64 MB

     Dynamical RAM for          rho,v,vnew:      32.54 MB

     Dynamical RAM for               rhoin:      10.85 MB

     Dynamical RAM for            rho*nmix:      78.61 MB

     Dynamical RAM for           G-vectors:       9.45 MB

     Dynamical RAM for          h,s,v(r/c):       2.95 MB

     Dynamical RAM for          <psi|beta>:       7.41 MB

     Dynamical RAM for                 psi:      60.16 MB

     Dynamical RAM for                hpsi:      60.16 MB

     Dynamical RAM for                spsi:      60.16 MB

     Dynamical RAM for      wfcinit/wfcrot:      69.08 MB

     Dynamical RAM for           addusdens:      78.00 MB

     Dynamical RAM for          addusforce:     108.20 MB

     Dynamical RAM for         addusstress:      64.33 MB

     Estimated static dynamical RAM per process >     588.22 MB

     Estimated max dynamical RAM per process >     857.68 MB

     Estimated total dynamical RAM >      98.61 GB
     Generating pointlists ...
     new r_m :   0.1183 (alat units)  1.9238 (a.u.) for type    1

     Initial potential from superposition of free atoms

     starting charge     847.9768, renormalised to     848.0000
     Starting wfcs are  530 randomized atomic wfcs
     Checking if some PAW data can be deallocated... 

     total cpu time spent up to now is       74.5 secs

     per-process dynamical memory:   811.0 Mb

     Self-consistent Calculation

     iteration #  1     ecut=    90.00 Ry     beta= 0.20
     Davidson diagonalization with overlap

---- Real-time Memory Report at c_bands before calling an iterative solver
          1380 MiB given to the printing process from OS
           792 MiB allocation reported by mallinfo(arena+hblkhd)
        400139 MiB available memory on the node where the printing process lives
------------------
     ethr =  1.00E-02,  avg # of iterations =  3.4

     total cpu time spent up to now is      328.4 secs

     total energy              =  -17442.58834022 Ry
     estimated scf accuracy    <      15.59895012 Ry

     total magnetization       =   166.44 Bohr mag/cell
     absolute magnetization    =   168.62 Bohr mag/cell

     iteration #  2     ecut=    90.00 Ry     beta= 0.20
     Davidson diagonalization with overlap

---- Real-time Memory Report at c_bands before calling an iterative solver
          1549 MiB given to the printing process from OS
           821 MiB allocation reported by mallinfo(arena+hblkhd)
        397448 MiB available memory on the node where the printing process lives
------------------
     ethr =  1.84E-03,  avg # of iterations =  2.9

     total cpu time spent up to now is      543.7 secs

     total energy              =  -17443.21277081 Ry
     estimated scf accuracy    <      19.60313628 Ry

     total magnetization       =   162.33 Bohr mag/cell
     absolute magnetization    =   165.70 Bohr mag/cell

     iteration #  3     ecut=    90.00 Ry     beta= 0.20
     Davidson diagonalization with overlap

---- Real-time Memory Report at c_bands before calling an iterative solver
          1558 MiB given to the printing process from OS
           823 MiB allocation reported by mallinfo(arena+hblkhd)
        397422 MiB available memory on the node where the printing process lives
------------------
     ethr =  1.84E-03,  avg # of iterations =  2.6

     negative rho (up, down):  0.000E+00 2.795E-03

     total cpu time spent up to now is      758.6 secs

     total energy              =  -17447.42840694 Ry
     estimated scf accuracy    <      17.92013516 Ry

     total magnetization       =   162.01 Bohr mag/cell
     absolute magnetization    =   165.75 Bohr mag/cell

     iteration #  4     ecut=    90.00 Ry     beta= 0.20
     Davidson diagonalization with overlap

---- Real-time Memory Report at c_bands before calling an iterative solver
          1560 MiB given to the printing process from OS
           825 MiB allocation reported by mallinfo(arena+hblkhd)
        397382 MiB available memory on the node where the printing process lives
------------------
     ethr =  1.84E-03,  avg # of iterations =  1.7

     negative rho (up, down):  0.000E+00 2.634E-02

     total cpu time spent up to now is      965.7 secs

     total energy              =  -17449.48729175 Ry
     estimated scf accuracy    <      23.49871846 Ry

     total magnetization       =   150.11 Bohr mag/cell
     absolute magnetization    =   155.86 Bohr mag/cell

     iteration #  5     ecut=    90.00 Ry     beta= 0.20
     Davidson diagonalization with overlap

---- Real-time Memory Report at c_bands before calling an iterative solver
          1563 MiB given to the printing process from OS
           828 MiB allocation reported by mallinfo(arena+hblkhd)
        397337 MiB available memory on the node where the printing process lives
------------------
     ethr =  1.84E-03,  avg # of iterations =  1.2

     negative rho (up, down):  0.000E+00 2.563E-02

     total cpu time spent up to now is     1167.0 secs

     total energy              =  -17450.92130861 Ry
     estimated scf accuracy    <       2.63452146 Ry

     total magnetization       =   137.46 Bohr mag/cell
     absolute magnetization    =   145.77 Bohr mag/cell

     iteration #  6     ecut=    90.00 Ry     beta= 0.20
     Davidson diagonalization with overlap

---- Real-time Memory Report at c_bands before calling an iterative solver
          1565 MiB given to the printing process from OS
           830 MiB allocation reported by mallinfo(arena+hblkhd)
        397298 MiB available memory on the node where the printing process lives
------------------
     ethr =  3.11E-04,  avg # of iterations =  3.1

     negative rho (up, down):  0.000E+00 2.352E-02

     total cpu time spent up to now is     1384.8 secs

     total energy              =  -17451.02883634 Ry
     estimated scf accuracy    <       0.96720609 Ry

     total magnetization       =   135.78 Bohr mag/cell
     absolute magnetization    =   143.69 Bohr mag/cell

     iteration #  7     ecut=    90.00 Ry     beta= 0.20
     Davidson diagonalization with overlap

---- Real-time Memory Report at c_bands before calling an iterative solver
          1567 MiB given to the printing process from OS
           832 MiB allocation reported by mallinfo(arena+hblkhd)
        397258 MiB available memory on the node where the printing process lives
------------------
     ethr =  1.14E-04,  avg # of iterations =  3.6

     negative rho (up, down):  0.000E+00 1.352E-02

     total cpu time spent up to now is     1603.7 secs

     total energy              =  -17450.91329149 Ry
     estimated scf accuracy    <       0.66383422 Ry

     total magnetization       =   135.26 Bohr mag/cell
     absolute magnetization    =   143.02 Bohr mag/cell

     iteration #  8     ecut=    90.00 Ry     beta= 0.20
     Davidson diagonalization with overlap

---- Real-time Memory Report at c_bands before calling an iterative solver
          1570 MiB given to the printing process from OS
           835 MiB allocation reported by mallinfo(arena+hblkhd)
        397216 MiB available memory on the node where the printing process lives
------------------
     ethr =  7.83E-05,  avg # of iterations =  4.2

     negative rho (up, down):  0.000E+00 1.041E-02

     total cpu time spent up to now is     1871.2 secs

     total energy              =  -17451.05887124 Ry
     estimated scf accuracy    <       0.41540833 Ry

     total magnetization       =   127.86 Bohr mag/cell
     absolute magnetization    =   135.90 Bohr mag/cell

     iteration #  9     ecut=    90.00 Ry     beta= 0.20
     Davidson diagonalization with overlap

---- Real-time Memory Report at c_bands before calling an iterative solver
          1572 MiB given to the printing process from OS
           837 MiB allocation reported by mallinfo(arena+hblkhd)
        397285 MiB available memory on the node where the printing process lives
------------------
     ethr =  4.90E-05,  avg # of iterations =  2.2

     negative rho (up, down):  0.000E+00 8.185E-03

     total cpu time spent up to now is     2086.3 secs

     total energy              =  -17451.08024673 Ry
     estimated scf accuracy    <       0.31375194 Ry

     total magnetization       =   124.35 Bohr mag/cell
     absolute magnetization    =   132.55 Bohr mag/cell

     iteration # 10     ecut=    90.00 Ry     beta= 0.20
     Davidson diagonalization with overlap

---- Real-time Memory Report at c_bands before calling an iterative solver
          1574 MiB given to the printing process from OS
           839 MiB allocation reported by mallinfo(arena+hblkhd)
        397235 MiB available memory on the node where the printing process lives
------------------
     ethr =  3.70E-05,  avg # of iterations =  1.9

     negative rho (up, down):  0.000E+00 5.208E-03

     total cpu time spent up to now is     2294.8 secs

     total energy              =  -17451.04415375 Ry
     estimated scf accuracy    <       0.19284509 Ry

     total magnetization       =   121.43 Bohr mag/cell
     absolute magnetization    =   129.78 Bohr mag/cell

     iteration # 11     ecut=    90.00 Ry     beta= 0.20
     Davidson diagonalization with overlap

---- Real-time Memory Report at c_bands before calling an iterative solver
          1576 MiB given to the printing process from OS
           839 MiB allocation reported by mallinfo(arena+hblkhd)
        397230 MiB available memory on the node where the printing process lives
------------------
     ethr =  2.27E-05,  avg # of iterations =  5.0

     negative rho (up, down):  0.000E+00 4.468E-03

     total cpu time spent up to now is     2564.0 secs

     total energy              =  -17451.08569552 Ry
     estimated scf accuracy    <       0.12634801 Ry

     total magnetization       =   122.32 Bohr mag/cell
     absolute magnetization    =   129.92 Bohr mag/cell

     iteration # 12     ecut=    90.00 Ry     beta= 0.20
     Davidson diagonalization with overlap

---- Real-time Memory Report at c_bands before calling an iterative solver
          1576 MiB given to the printing process from OS
           839 MiB allocation reported by mallinfo(arena+hblkhd)
        397217 MiB available memory on the node where the printing process lives
------------------
     ethr =  1.49E-05,  avg # of iterations =  1.4

     negative rho (up, down):  0.000E+00 4.234E-03

     total cpu time spent up to now is     2764.4 secs

     total energy              =  -17451.08925939 Ry
     estimated scf accuracy    <       0.10413823 Ry

     total magnetization       =   121.85 Bohr mag/cell
     absolute magnetization    =   129.41 Bohr mag/cell

     iteration # 13     ecut=    90.00 Ry     beta= 0.20
     Davidson diagonalization with overlap

---- Real-time Memory Report at c_bands before calling an iterative solver
          1576 MiB given to the printing process from OS
           839 MiB allocation reported by mallinfo(arena+hblkhd)
        397210 MiB available memory on the node where the printing process lives
------------------
     ethr =  1.23E-05,  avg # of iterations =  1.5

     negative rho (up, down):  0.000E+00 3.615E-03

     total cpu time spent up to now is     2963.7 secs

     total energy              =  -17451.09892281 Ry
     estimated scf accuracy    <       0.01577523 Ry

     total magnetization       =   120.86 Bohr mag/cell
     absolute magnetization    =   128.45 Bohr mag/cell

     iteration # 14     ecut=    90.00 Ry     beta= 0.20
     Davidson diagonalization with overlap

---- Real-time Memory Report at c_bands before calling an iterative solver
          1576 MiB given to the printing process from OS
           839 MiB allocation reported by mallinfo(arena+hblkhd)
        397214 MiB available memory on the node where the printing process lives
------------------
     c_bands:  2 eigenvalues not converged
     ethr =  1.86E-06,  avg # of iterations =  7.5

     negative rho (up, down):  0.000E+00 3.302E-03

     total cpu time spent up to now is     3220.4 secs

     total energy              =  -17451.10115113 Ry
     estimated scf accuracy    <       0.02310097 Ry

     total magnetization       =   120.75 Bohr mag/cell
     absolute magnetization    =   128.09 Bohr mag/cell

     iteration # 15     ecut=    90.00 Ry     beta= 0.20
     Davidson diagonalization with overlap

---- Real-time Memory Report at c_bands before calling an iterative solver
          1576 MiB given to the printing process from OS
           839 MiB allocation reported by mallinfo(arena+hblkhd)
        397197 MiB available memory on the node where the printing process lives
------------------
     ethr =  1.86E-06,  avg # of iterations =  3.0

     negative rho (up, down):  0.000E+00 3.214E-03

     total cpu time spent up to now is     3444.4 secs

     total energy              =  -17451.10305419 Ry
     estimated scf accuracy    <       0.00617547 Ry

     total magnetization       =   120.66 Bohr mag/cell
     absolute magnetization    =   127.89 Bohr mag/cell

     iteration # 16     ecut=    90.00 Ry     beta= 0.20
     Davidson diagonalization with overlap

---- Real-time Memory Report at c_bands before calling an iterative solver
          1576 MiB given to the printing process from OS
           839 MiB allocation reported by mallinfo(arena+hblkhd)
        397187 MiB available memory on the node where the printing process lives
------------------
     ethr =  7.28E-07,  avg # of iterations =  1.6

     negative rho (up, down):  0.000E+00 3.065E-03

     total cpu time spent up to now is     3648.3 secs

     total energy              =  -17451.10430666 Ry
     estimated scf accuracy    <       0.00420896 Ry

     total magnetization       =   120.64 Bohr mag/cell
     absolute magnetization    =   127.83 Bohr mag/cell

     iteration # 17     ecut=    90.00 Ry     beta= 0.20
     Davidson diagonalization with overlap

---- Real-time Memory Report at c_bands before calling an iterative solver
          1576 MiB given to the printing process from OS
           839 MiB allocation reported by mallinfo(arena+hblkhd)
        397187 MiB available memory on the node where the printing process lives
------------------
     ethr =  4.96E-07,  avg # of iterations =  2.2

     negative rho (up, down):  0.000E+00 2.929E-03

     total cpu time spent up to now is     3863.0 secs

     total energy              =  -17451.10527259 Ry
     estimated scf accuracy    <       0.00260708 Ry

     total magnetization       =   120.41 Bohr mag/cell
     absolute magnetization    =   127.54 Bohr mag/cell

     iteration # 18     ecut=    90.00 Ry     beta= 0.20
     Davidson diagonalization with overlap

---- Real-time Memory Report at c_bands before calling an iterative solver
          1576 MiB given to the printing process from OS
           839 MiB allocation reported by mallinfo(arena+hblkhd)
        397460 MiB available memory on the node where the printing process lives
------------------
     ethr =  3.07E-07,  avg # of iterations =  3.1

     negative rho (up, down):  0.000E+00 2.717E-03

     total cpu time spent up to now is     4096.2 secs

     total energy              =  -17451.10657859 Ry
     estimated scf accuracy    <       0.00381142 Ry

     total magnetization       =   120.25 Bohr mag/cell
     absolute magnetization    =   127.31 Bohr mag/cell

     iteration # 19     ecut=    90.00 Ry     beta= 0.20
     Davidson diagonalization with overlap

---- Real-time Memory Report at c_bands before calling an iterative solver
          1576 MiB given to the printing process from OS
           839 MiB allocation reported by mallinfo(arena+hblkhd)
        397460 MiB available memory on the node where the printing process lives
------------------
     ethr =  3.07E-07,  avg # of iterations =  4.0

     negative rho (up, down):  0.000E+00 2.533E-03

     total cpu time spent up to now is     4335.5 secs

     total energy              =  -17451.10722334 Ry
     estimated scf accuracy    <       0.00508528 Ry

     total magnetization       =   120.08 Bohr mag/cell
     absolute magnetization    =   126.98 Bohr mag/cell

     iteration # 20     ecut=    90.00 Ry     beta= 0.20
     Davidson diagonalization with overlap

---- Real-time Memory Report at c_bands before calling an iterative solver
          1576 MiB given to the printing process from OS
           839 MiB allocation reported by mallinfo(arena+hblkhd)
        397458 MiB available memory on the node where the printing process lives
------------------
     ethr =  3.07E-07,  avg # of iterations =  2.4

     negative rho (up, down):  0.000E+00 2.511E-03

     total cpu time spent up to now is     4553.3 secs

     total energy              =  -17451.10759023 Ry
     estimated scf accuracy    <       0.00076837 Ry

     total magnetization       =   119.92 Bohr mag/cell
     absolute magnetization    =   126.73 Bohr mag/cell

     iteration # 21     ecut=    90.00 Ry     beta= 0.20
     Davidson diagonalization with overlap

---- Real-time Memory Report at c_bands before calling an iterative solver
          1576 MiB given to the printing process from OS
           839 MiB allocation reported by mallinfo(arena+hblkhd)
        397451 MiB available memory on the node where the printing process lives
------------------
     ethr =  9.06E-08,  avg # of iterations =  3.7

     negative rho (up, down):  0.000E+00 2.556E-03

     total cpu time spent up to now is     4810.9 secs

     total energy              =  -17451.10772024 Ry
     estimated scf accuracy    <       0.00048175 Ry

     total magnetization       =   119.83 Bohr mag/cell
     absolute magnetization    =   126.56 Bohr mag/cell

     iteration # 22     ecut=    90.00 Ry     beta= 0.20
     Davidson diagonalization with overlap

---- Real-time Memory Report at c_bands before calling an iterative solver
          1576 MiB given to the printing process from OS
           839 MiB allocation reported by mallinfo(arena+hblkhd)
        397440 MiB available memory on the node where the printing process lives
------------------
     ethr =  5.68E-08,  avg # of iterations =  2.0

     negative rho (up, down):  0.000E+00 2.535E-03

     total cpu time spent up to now is     5021.8 secs

     total energy              =  -17451.10778464 Ry
     estimated scf accuracy    <       0.00041909 Ry

     total magnetization       =   119.80 Bohr mag/cell
     absolute magnetization    =   126.51 Bohr mag/cell

     iteration # 23     ecut=    90.00 Ry     beta= 0.20
     Davidson diagonalization with overlap

---- Real-time Memory Report at c_bands before calling an iterative solver
          1576 MiB given to the printing process from OS
           839 MiB allocation reported by mallinfo(arena+hblkhd)
        397436 MiB available memory on the node where the printing process lives
------------------
     ethr =  4.94E-08,  avg # of iterations =  3.0

     negative rho (up, down):  0.000E+00 2.556E-03

     total cpu time spent up to now is     5253.2 secs

     total energy              =  -17451.10786115 Ry
     estimated scf accuracy    <       0.00041478 Ry

     total magnetization       =   119.70 Bohr mag/cell
     absolute magnetization    =   126.38 Bohr mag/cell

     iteration # 24     ecut=    90.00 Ry     beta= 0.20
     Davidson diagonalization with overlap

---- Real-time Memory Report at c_bands before calling an iterative solver
          1576 MiB given to the printing process from OS
           839 MiB allocation reported by mallinfo(arena+hblkhd)
        397384 MiB available memory on the node where the printing process lives
------------------
     ethr =  4.89E-08,  avg # of iterations =  1.5

     negative rho (up, down):  0.000E+00 2.561E-03

     total cpu time spent up to now is     5458.6 secs

     total energy              =  -17451.10786724 Ry
     estimated scf accuracy    <       0.00011329 Ry

     total magnetization       =   119.64 Bohr mag/cell
     absolute magnetization    =   126.32 Bohr mag/cell

     iteration # 25     ecut=    90.00 Ry     beta= 0.20
     Davidson diagonalization with overlap

---- Real-time Memory Report at c_bands before calling an iterative solver
          1576 MiB given to the printing process from OS
           839 MiB allocation reported by mallinfo(arena+hblkhd)
        397353 MiB available memory on the node where the printing process lives
------------------
     ethr =  1.34E-08,  avg # of iterations =  2.9

     negative rho (up, down):  0.000E+00 2.564E-03

     total cpu time spent up to now is     5691.5 secs

     total energy              =  -17451.10786243 Ry
     estimated scf accuracy    <       0.00099029 Ry

     total magnetization       =   119.61 Bohr mag/cell
     absolute magnetization    =   126.28 Bohr mag/cell

     iteration # 26     ecut=    90.00 Ry     beta= 0.20
     Davidson diagonalization with overlap

---- Real-time Memory Report at c_bands before calling an iterative solver
          1576 MiB given to the printing process from OS
           839 MiB allocation reported by mallinfo(arena+hblkhd)
        397349 MiB available memory on the node where the printing process lives
------------------
     ethr =  1.34E-08,  avg # of iterations =  1.5

     negative rho (up, down):  0.000E+00 2.557E-03

     total cpu time spent up to now is     5897.0 secs

     total energy              =  -17451.10789230 Ry
     estimated scf accuracy    <       0.00003084 Ry

     total magnetization       =   119.61 Bohr mag/cell
     absolute magnetization    =   126.27 Bohr mag/cell

     iteration # 27     ecut=    90.00 Ry     beta= 0.20
     Davidson diagonalization with overlap

---- Real-time Memory Report at c_bands before calling an iterative solver
          1576 MiB given to the printing process from OS
           839 MiB allocation reported by mallinfo(arena+hblkhd)
        397341 MiB available memory on the node where the printing process lives
------------------
     ethr =  3.64E-09,  avg # of iterations =  2.9

     negative rho (up, down):  0.000E+00 2.565E-03

     total cpu time spent up to now is     6141.9 secs

     total energy              =  -17451.10789588 Ry
     estimated scf accuracy    <       0.00003210 Ry

     total magnetization       =   119.56 Bohr mag/cell
     absolute magnetization    =   126.21 Bohr mag/cell

     iteration # 28     ecut=    90.00 Ry     beta= 0.20
     Davidson diagonalization with overlap

---- Real-time Memory Report at c_bands before calling an iterative solver
          1576 MiB given to the printing process from OS
           839 MiB allocation reported by mallinfo(arena+hblkhd)
        397333 MiB available memory on the node where the printing process lives
------------------
     ethr =  3.64E-09,  avg # of iterations =  1.2

     negative rho (up, down):  0.000E+00 2.566E-03

     total cpu time spent up to now is     6339.2 secs

     total energy              =  -17451.10789692 Ry
     estimated scf accuracy    <       0.00002882 Ry

     total magnetization       =   119.56 Bohr mag/cell
     absolute magnetization    =   126.22 Bohr mag/cell

     iteration # 29     ecut=    90.00 Ry     beta= 0.20
     Davidson diagonalization with overlap

---- Real-time Memory Report at c_bands before calling an iterative solver
          1576 MiB given to the printing process from OS
           839 MiB allocation reported by mallinfo(arena+hblkhd)
        397334 MiB available memory on the node where the printing process lives
------------------
     ethr =  3.40E-09,  avg # of iterations =  1.0

     negative rho (up, down):  0.000E+00 2.563E-03

     total cpu time spent up to now is     6524.6 secs

     total energy              =  -17451.10789987 Ry
     estimated scf accuracy    <       0.00000933 Ry

     total magnetization       =   119.56 Bohr mag/cell
     absolute magnetization    =   126.21 Bohr mag/cell

     iteration # 30     ecut=    90.00 Ry     beta= 0.20
     Davidson diagonalization with overlap

---- Real-time Memory Report at c_bands before calling an iterative solver
          1576 MiB given to the printing process from OS
           839 MiB allocation reported by mallinfo(arena+hblkhd)
        397326 MiB available memory on the node where the printing process lives
------------------
     ethr =  1.10E-09,  avg # of iterations =  1.5

     negative rho (up, down):  0.000E+00 2.561E-03

     total cpu time spent up to now is     6727.1 secs

     total energy              =  -17451.10790153 Ry
     estimated scf accuracy    <       0.00000684 Ry

     total magnetization       =   119.56 Bohr mag/cell
     absolute magnetization    =   126.21 Bohr mag/cell

     iteration # 31     ecut=    90.00 Ry     beta= 0.20
     Davidson diagonalization with overlap

---- Real-time Memory Report at c_bands before calling an iterative solver
          1576 MiB given to the printing process from OS
           839 MiB allocation reported by mallinfo(arena+hblkhd)
        397326 MiB available memory on the node where the printing process lives
------------------
     ethr =  8.06E-10,  avg # of iterations =  2.1

     negative rho (up, down):  0.000E+00 2.559E-03

     total cpu time spent up to now is     6938.3 secs

     total energy              =  -17451.10790375 Ry
     estimated scf accuracy    <       0.00000368 Ry

     total magnetization       =   119.55 Bohr mag/cell
     absolute magnetization    =   126.20 Bohr mag/cell

     iteration # 32     ecut=    90.00 Ry     beta= 0.20
     Davidson diagonalization with overlap

---- Real-time Memory Report at c_bands before calling an iterative solver
          1576 MiB given to the printing process from OS
           839 MiB allocation reported by mallinfo(arena+hblkhd)
        397320 MiB available memory on the node where the printing process lives
------------------
     ethr =  4.34E-10,  avg # of iterations =  2.4

     negative rho (up, down):  0.000E+00 2.556E-03

     total cpu time spent up to now is     7157.1 secs

     total energy              =  -17451.10790487 Ry
     estimated scf accuracy    <       0.00001092 Ry

     total magnetization       =   119.56 Bohr mag/cell
     absolute magnetization    =   126.20 Bohr mag/cell

     iteration # 33     ecut=    90.00 Ry     beta= 0.20
     Davidson diagonalization with overlap

---- Real-time Memory Report at c_bands before calling an iterative solver
          1576 MiB given to the printing process from OS
           839 MiB allocation reported by mallinfo(arena+hblkhd)
        397310 MiB available memory on the node where the printing process lives
------------------
     ethr =  4.34E-10,  avg # of iterations =  3.3

     negative rho (up, down):  0.000E+00 2.556E-03

     total cpu time spent up to now is     7410.4 secs

     total energy              =  -17451.10790614 Ry
     estimated scf accuracy    <       0.00000087 Ry

     total magnetization       =   119.56 Bohr mag/cell
     absolute magnetization    =   126.20 Bohr mag/cell

     iteration # 34     ecut=    90.00 Ry     beta= 0.20
     Davidson diagonalization with overlap

---- Real-time Memory Report at c_bands before calling an iterative solver
          1576 MiB given to the printing process from OS
           839 MiB allocation reported by mallinfo(arena+hblkhd)
        397305 MiB available memory on the node where the printing process lives
------------------
     ethr =  1.03E-10,  avg # of iterations =  3.6

     negative rho (up, down):  0.000E+00 2.556E-03

     total cpu time spent up to now is     7638.9 secs

     total energy              =  -17451.10790625 Ry
     estimated scf accuracy    <       0.00000046 Ry

     total magnetization       =   119.56 Bohr mag/cell
     absolute magnetization    =   126.20 Bohr mag/cell

     iteration # 35     ecut=    90.00 Ry     beta= 0.20
     Davidson diagonalization with overlap

---- Real-time Memory Report at c_bands before calling an iterative solver
          1576 MiB given to the printing process from OS
           839 MiB allocation reported by mallinfo(arena+hblkhd)
        397290 MiB available memory on the node where the printing process lives
------------------
     ethr =  5.45E-11,  avg # of iterations =  3.8

     negative rho (up, down):  0.000E+00 2.557E-03

     total cpu time spent up to now is     7892.8 secs

     total energy              =  -17451.10790624 Ry
     estimated scf accuracy    <       0.00000102 Ry

     total magnetization       =   119.56 Bohr mag/cell
     absolute magnetization    =   126.20 Bohr mag/cell

     iteration # 36     ecut=    90.00 Ry     beta= 0.20
     Davidson diagonalization with overlap

---- Real-time Memory Report at c_bands before calling an iterative solver
          1576 MiB given to the printing process from OS
           839 MiB allocation reported by mallinfo(arena+hblkhd)
        397256 MiB available memory on the node where the printing process lives
------------------
     ethr =  5.45E-11,  avg # of iterations =  1.4

     negative rho (up, down):  0.000E+00 2.557E-03

     total cpu time spent up to now is     8095.6 secs

     total energy              =  -17451.10790632 Ry
     estimated scf accuracy    <       0.00000066 Ry

     total magnetization       =   119.56 Bohr mag/cell
     absolute magnetization    =   126.20 Bohr mag/cell

     iteration # 37     ecut=    90.00 Ry     beta= 0.20
     Davidson diagonalization with overlap

---- Real-time Memory Report at c_bands before calling an iterative solver
          1576 MiB given to the printing process from OS
           839 MiB allocation reported by mallinfo(arena+hblkhd)
        397258 MiB available memory on the node where the printing process lives
------------------
     ethr =  5.45E-11,  avg # of iterations =  1.2

     negative rho (up, down):  0.000E+00 2.557E-03

     total cpu time spent up to now is     8291.1 secs

     total energy              =  -17451.10790635 Ry
     estimated scf accuracy    <       0.00000024 Ry

     total magnetization       =   119.56 Bohr mag/cell
     absolute magnetization    =   126.20 Bohr mag/cell

     iteration # 38     ecut=    90.00 Ry     beta= 0.20
     Davidson diagonalization with overlap

---- Real-time Memory Report at c_bands before calling an iterative solver
          1576 MiB given to the printing process from OS
           839 MiB allocation reported by mallinfo(arena+hblkhd)
        397252 MiB available memory on the node where the printing process lives
------------------
     ethr =  2.83E-11,  avg # of iterations =  1.8

     negative rho (up, down):  0.000E+00 2.557E-03

     total cpu time spent up to now is     8502.8 secs

     total energy              =  -17451.10790638 Ry
     estimated scf accuracy    <       0.00000020 Ry

     total magnetization       =   119.56 Bohr mag/cell
     absolute magnetization    =   126.20 Bohr mag/cell

     iteration # 39     ecut=    90.00 Ry     beta= 0.20
     Davidson diagonalization with overlap

---- Real-time Memory Report at c_bands before calling an iterative solver
          1576 MiB given to the printing process from OS
           839 MiB allocation reported by mallinfo(arena+hblkhd)
        397250 MiB available memory on the node where the printing process lives
------------------
     ethr =  2.41E-11,  avg # of iterations =  1.1

     negative rho (up, down):  0.000E+00 2.557E-03

     total cpu time spent up to now is     8694.0 secs

     total energy              =  -17451.10790639 Ry
     estimated scf accuracy    <       0.00000013 Ry

     total magnetization       =   119.56 Bohr mag/cell
     absolute magnetization    =   126.20 Bohr mag/cell

     iteration # 40     ecut=    90.00 Ry     beta= 0.20
     Davidson diagonalization with overlap

---- Real-time Memory Report at c_bands before calling an iterative solver
          1576 MiB given to the printing process from OS
           839 MiB allocation reported by mallinfo(arena+hblkhd)
        397229 MiB available memory on the node where the printing process lives
------------------
     ethr =  1.54E-11,  avg # of iterations =  1.4

     negative rho (up, down):  0.000E+00 2.557E-03

     total cpu time spent up to now is     8897.9 secs

     total energy              =  -17451.10790640 Ry
     estimated scf accuracy    <       0.00000014 Ry

     total magnetization       =   119.56 Bohr mag/cell
     absolute magnetization    =   126.20 Bohr mag/cell

     iteration # 41     ecut=    90.00 Ry     beta= 0.20
     Davidson diagonalization with overlap

---- Real-time Memory Report at c_bands before calling an iterative solver
          1576 MiB given to the printing process from OS
           839 MiB allocation reported by mallinfo(arena+hblkhd)
        397233 MiB available memory on the node where the printing process lives
------------------
     ethr =  1.54E-11,  avg # of iterations =  1.1

     negative rho (up, down):  0.000E+00 2.557E-03

     total cpu time spent up to now is     9092.8 secs

     total energy              =  -17451.10790642 Ry
     estimated scf accuracy    <       0.00000005 Ry

     total magnetization       =   119.56 Bohr mag/cell
     absolute magnetization    =   126.20 Bohr mag/cell

     iteration # 42     ecut=    90.00 Ry     beta= 0.20
     Davidson diagonalization with overlap

---- Real-time Memory Report at c_bands before calling an iterative solver
          1576 MiB given to the printing process from OS
           839 MiB allocation reported by mallinfo(arena+hblkhd)
        397214 MiB available memory on the node where the printing process lives
------------------
     ethr =  5.50E-12,  avg # of iterations =  2.0

     negative rho (up, down):  0.000E+00 2.557E-03

[...]
     atom   43 type  1   force =    -0.00000000    1.01382167   -1.01382167
     atom   44 type  1   force =    11.65760279   -0.00000000    0.00000000
     atom   45 type  1   force =    -0.00000000    1.01382167    1.01382167
     atom   46 type  1   force =     3.19792070    0.00000000    3.19792070
     atom   47 type  1   force =    -0.00000000    1.08477677    0.00000000
     atom   48 type  1   force =     2.18085291    2.18085291   -2.18085291
     atom   49 type  1   force =     0.00000000    0.00000000   -1.08477677
     atom   50 type  1   force =     3.19792070    3.19792070    0.00000000
     atom   51 type  1   force =     0.00000000    0.00000000    1.08477677
     atom   52 type  1   force =     2.18085291    2.18085291    2.18085291
     atom   53 type  1   force =     0.00000000    0.00000000    0.00000000
     The core correction contribution to forces
     atom    1 type  1   force =    -0.00024259   -0.00024259   -0.00024259
     atom    2 type  1   force =    -0.00220479   -0.00220479   -0.00220479
     atom    3 type  1   force =     0.00008536    0.00008536   -0.00000000
     atom    4 type  1   force =    -0.00220479   -0.00220479    0.00220479
     atom    5 type  1   force =    -0.00024259   -0.00024259    0.00024259
     atom    6 type  1   force =     0.00017758    0.00017758    0.00000000
     atom    7 type  1   force =     0.00008536    0.00000000    0.00008536
     atom    8 type  1   force =    -0.00220479    0.00220479   -0.00220479
     atom    9 type  1   force =    -0.00224905    0.00000000    0.00000000
     atom   10 type  1   force =    -0.00220479    0.00220479    0.00220479
     atom   11 type  1   force =     0.00008536    0.00000000   -0.00008536
     atom   12 type  1   force =     0.00017758   -0.00017758    0.00000000
     atom   13 type  1   force =    -0.00024259    0.00024259   -0.00024259
     atom   14 type  1   force =     0.00017758    0.00000000    0.00017758
     atom   15 type  1   force =     0.00008536   -0.00008536   -0.00000000
     atom   16 type  1   force =     0.00017758    0.00000000   -0.00017758
     atom   17 type  1   force =    -0.00024259    0.00024259    0.00024259
     atom   18 type  1   force =    -0.00006805    0.00000000    0.00000000
     atom   19 type  1   force =    -0.00000000    0.00008536    0.00008536
     atom   20 type  1   force =     0.00220479   -0.00220479   -0.00220479
     atom   21 type  1   force =    -0.00000000   -0.00224905    0.00000000
     atom   22 type  1   force =     0.00220479   -0.00220479    0.00220479
     atom   23 type  1   force =    -0.00000000    0.00008536   -0.00008536
     atom   24 type  1   force =    -0.00017758    0.00017758    0.00000000
     atom   25 type  1   force =     0.00000000    0.00000000   -0.00224905
     atom   26 type  1   force =     0.00220479    0.00220479   -0.00220479
     atom   27 type  1   force =     0.00220479    0.00220479    0.00220479
     atom   28 type  1   force =    -0.00000000    0.00000000    0.00224905
     atom   29 type  1   force =    -0.00017758   -0.00017758    0.00000000
     atom   30 type  1   force =    -0.00000000   -0.00008536    0.00008536
     atom   31 type  1   force =    -0.00017758   -0.00000000    0.00017758
     atom   32 type  1   force =    -0.00000000    0.00224905   -0.00000000
     atom   33 type  1   force =    -0.00017758   -0.00000000   -0.00017758
     atom   34 type  1   force =     0.00000000   -0.00008536   -0.00008536
     atom   35 type  1   force =     0.00006805    0.00000000    0.00000000
     atom   36 type  1   force =     0.00024259   -0.00024259   -0.00024259
     atom   37 type  1   force =    -0.00000000    0.00017758    0.00017758
     atom   38 type  1   force =    -0.00008536    0.00008536   -0.00000000
     atom   39 type  1   force =    -0.00000000    0.00017758   -0.00017758
     atom   40 type  1   force =     0.00024259   -0.00024259    0.00024259
     atom   41 type  1   force =     0.00000000   -0.00006805    0.00000000
     atom   42 type  1   force =    -0.00008536    0.00000000    0.00008536
     atom   43 type  1   force =     0.00000000   -0.00017758    0.00017758
     atom   44 type  1   force =     0.00224905   -0.00000000   -0.00000000
     atom   45 type  1   force =     0.00000000   -0.00017758   -0.00017758
     atom   46 type  1   force =    -0.00008536    0.00000000   -0.00008536
     atom   47 type  1   force =     0.00000000    0.00006805    0.00000000
     atom   48 type  1   force =     0.00024259    0.00024259   -0.00024259
     atom   49 type  1   force =     0.00000000    0.00000000   -0.00006805
     atom   50 type  1   force =    -0.00008536   -0.00008536    0.00000000
     atom   51 type  1   force =     0.00000000    0.00000000    0.00006805
     atom   52 type  1   force =     0.00024259    0.00024259    0.00024259
     atom   53 type  1   force =     0.00000000    0.00000000    0.00000000
     The Hubbard contrib.    to forces
     atom    1 type  1   force =     0.00000000    0.00000000    0.00000000
     atom    2 type  1   force =     0.00000000    0.00000000    0.00000000
     atom    3 type  1   force =     0.00000000    0.00000000    0.00000000
     atom    4 type  1   force =     0.00000000    0.00000000    0.00000000
     atom    5 type  1   force =     0.00000000    0.00000000    0.00000000
     atom    6 type  1   force =     0.00000000    0.00000000    0.00000000
     atom    7 type  1   force =     0.00000000    0.00000000    0.00000000
     atom    8 type  1   force =     0.00000000    0.00000000    0.00000000
     atom    9 type  1   force =     0.00000000    0.00000000    0.00000000
     atom   10 type  1   force =     0.00000000    0.00000000    0.00000000
     atom   11 type  1   force =     0.00000000    0.00000000    0.00000000
     atom   12 type  1   force =     0.00000000    0.00000000    0.00000000
     atom   13 type  1   force =     0.00000000    0.00000000    0.00000000
     atom   14 type  1   force =     0.00000000    0.00000000    0.00000000
     atom   15 type  1   force =     0.00000000    0.00000000    0.00000000
     atom   16 type  1   force =     0.00000000    0.00000000    0.00000000
     atom   17 type  1   force =     0.00000000    0.00000000    0.00000000
     atom   18 type  1   force =     0.00000000    0.00000000    0.00000000
     atom   19 type  1   force =     0.00000000    0.00000000    0.00000000
     atom   20 type  1   force =     0.00000000    0.00000000    0.00000000
     atom   21 type  1   force =     0.00000000    0.00000000    0.00000000
     atom   22 type  1   force =     0.00000000    0.00000000    0.00000000
     atom   23 type  1   force =     0.00000000    0.00000000    0.00000000
     atom   24 type  1   force =     0.00000000    0.00000000    0.00000000
     atom   25 type  1   force =     0.00000000    0.00000000    0.00000000
     atom   26 type  1   force =     0.00000000    0.00000000    0.00000000
     atom   27 type  1   force =     0.00000000    0.00000000    0.00000000
     atom   28 type  1   force =     0.00000000    0.00000000    0.00000000
     atom   29 type  1   force =     0.00000000    0.00000000    0.00000000
     atom   30 type  1   force =     0.00000000    0.00000000    0.00000000
     atom   31 type  1   force =     0.00000000    0.00000000    0.00000000
     atom   32 type  1   force =     0.00000000    0.00000000    0.00000000
     atom   33 type  1   force =     0.00000000    0.00000000    0.00000000
     atom   34 type  1   force =     0.00000000    0.00000000    0.00000000
     atom   35 type  1   force =     0.00000000    0.00000000    0.00000000
     atom   36 type  1   force =     0.00000000    0.00000000    0.00000000
     atom   37 type  1   force =     0.00000000    0.00000000    0.00000000
     atom   38 type  1   force =     0.00000000    0.00000000    0.00000000
     atom   39 type  1   force =     0.00000000    0.00000000    0.00000000
     atom   40 type  1   force =     0.00000000    0.00000000    0.00000000
     atom   41 type  1   force =     0.00000000    0.00000000    0.00000000
     atom   42 type  1   force =     0.00000000    0.00000000    0.00000000
     atom   43 type  1   force =     0.00000000    0.00000000    0.00000000
     atom   44 type  1   force =     0.00000000    0.00000000    0.00000000
     atom   45 type  1   force =     0.00000000    0.00000000    0.00000000
     atom   46 type  1   force =     0.00000000    0.00000000    0.00000000
     atom   47 type  1   force =     0.00000000    0.00000000    0.00000000
     atom   48 type  1   force =     0.00000000    0.00000000    0.00000000
     atom   49 type  1   force =     0.00000000    0.00000000    0.00000000
     atom   50 type  1   force =     0.00000000    0.00000000    0.00000000
     atom   51 type  1   force =     0.00000000    0.00000000    0.00000000
     atom   52 type  1   force =     0.00000000    0.00000000    0.00000000
     atom   53 type  1   force =     0.00000000    0.00000000    0.00000000
     The SCF correction term to forces
     atom    1 type  1   force =     0.00003192    0.00003192    0.00003192
     atom    2 type  1   force =     0.00001545    0.00001545    0.00001545
     atom    3 type  1   force =     0.00002467    0.00002467   -0.00000000
     atom    4 type  1   force =     0.00001545    0.00001545   -0.00001545
     atom    5 type  1   force =     0.00003192    0.00003192   -0.00003192
     atom    6 type  1   force =     0.00002117    0.00002117    0.00000000
     atom    7 type  1   force =     0.00002467   -0.00000000    0.00002467
     atom    8 type  1   force =     0.00001545   -0.00001545    0.00001545
     atom    9 type  1   force =     0.00000668   -0.00000000   -0.00000000
     atom   10 type  1   force =     0.00001545   -0.00001545   -0.00001545
     atom   11 type  1   force =     0.00002467   -0.00000000   -0.00002467
     atom   12 type  1   force =     0.00002117   -0.00002117    0.00000000
     atom   13 type  1   force =     0.00003192   -0.00003192    0.00003192
     atom   14 type  1   force =     0.00002117    0.00000000    0.00002117
     atom   15 type  1   force =     0.00002467   -0.00002467    0.00000000
     atom   16 type  1   force =     0.00002117    0.00000000   -0.00002117
     atom   17 type  1   force =     0.00003192   -0.00003192   -0.00003192
     atom   18 type  1   force =     0.00002263    0.00000000    0.00000000
     atom   19 type  1   force =    -0.00000000    0.00002467    0.00002467
     atom   20 type  1   force =    -0.00001545    0.00001545    0.00001545
     atom   21 type  1   force =    -0.00000000    0.00000668   -0.00000000
     atom   22 type  1   force =    -0.00001545    0.00001545   -0.00001545
     atom   23 type  1   force =     0.00000000    0.00002467   -0.00002467
     atom   24 type  1   force =    -0.00002117    0.00002117    0.00000000
     atom   25 type  1   force =    -0.00000000   -0.00000000    0.00000668
     atom   26 type  1   force =    -0.00001545   -0.00001545    0.00001545
     atom   27 type  1   force =    -0.00001545   -0.00001545   -0.00001545
     atom   28 type  1   force =     0.00000000    0.00000000   -0.00000668
     atom   29 type  1   force =    -0.00002117   -0.00002117    0.00000000
     atom   30 type  1   force =    -0.00000000   -0.00002467    0.00002467
     atom   31 type  1   force =    -0.00002117    0.00000000    0.00002117
     atom   32 type  1   force =    -0.00000000   -0.00000668    0.00000000
     atom   33 type  1   force =    -0.00002117    0.00000000   -0.00002117
     atom   34 type  1   force =     0.00000000   -0.00002467   -0.00002467
     atom   35 type  1   force =    -0.00002263    0.00000000    0.00000000
     atom   36 type  1   force =    -0.00003192    0.00003192    0.00003192
     atom   37 type  1   force =    -0.00000000    0.00002117    0.00002117
     atom   38 type  1   force =    -0.00002467    0.00002467    0.00000000
     atom   39 type  1   force =    -0.00000000    0.00002117   -0.00002117
     atom   40 type  1   force =    -0.00003192    0.00003192   -0.00003192
     atom   41 type  1   force =     0.00000000    0.00002263    0.00000000
     atom   42 type  1   force =    -0.00002467   -0.00000000    0.00002467
     atom   43 type  1   force =     0.00000000   -0.00002117    0.00002117
     atom   44 type  1   force =    -0.00000668   -0.00000000   -0.00000000
     atom   45 type  1   force =    -0.00000000   -0.00002117   -0.00002117
     atom   46 type  1   force =    -0.00002467    0.00000000   -0.00002467
     atom   47 type  1   force =     0.00000000   -0.00002263    0.00000000
     atom   48 type  1   force =    -0.00003192   -0.00003192    0.00003192
     atom   49 type  1   force =    -0.00000000   -0.00000000    0.00002263
     atom   50 type  1   force =    -0.00002467   -0.00002467   -0.00000000
     atom   51 type  1   force =     0.00000000    0.00000000   -0.00002263
     atom   52 type  1   force =    -0.00003192   -0.00003192   -0.00003192
     atom   53 type  1   force =     0.00000000   -0.00000000    0.00000000

     Total force =     0.001217     Total SCF correction =     0.000243
     SCF correction compared to forces is large: reduce conv_thr to get better values


     Computing stress (Cartesian axis) and pressure


     negative rho (up, down):  0.000E+00 2.557E-03
          total   stress  (Ry/bohr**3)                   (kbar)     P=      -76.06
  -0.00051704   0.00000000   0.00000000          -76.06        0.00        0.00
   0.00000000  -0.00051704   0.00000000            0.00      -76.06        0.00
   0.00000000   0.00000000  -0.00051704            0.00        0.00      -76.06

     kinetic stress (kbar)  93646.61      0.00      0.00
                                0.00  93646.61      0.00
                                0.00      0.00  93646.61

     local   stress (kbar)   9680.13     -0.00     -0.00
                               -0.00   9680.13     -0.00
                               -0.00     -0.00   9680.13

     nonloc. stress (kbar) -25685.74      0.00      0.00
                                0.00 -25685.74      0.00
                                0.00      0.00 -25685.74

     hartree stress (kbar)  41016.64     -0.00      0.00
                               -0.00  41016.64      0.00
                                0.00      0.00  41016.64

     exc-cor stress (kbar) -13485.16     -0.00      0.00
                               -0.00 -13485.16     -0.00
                                0.00     -0.00 -13485.16

     corecor stress (kbar)  -2571.24      0.00     -0.00
                                0.00  -2571.24      0.00
                               -0.00      0.00  -2571.24

     ewald   stress (kbar)-102677.29     -0.00      0.00
                               -0.00-102677.29     -0.00
                                0.00     -0.00-102677.29

     hubbard stress (kbar)      0.00      0.00      0.00
                                0.00      0.00      0.00
                                0.00      0.00      0.00

     DFT-D   stress (kbar)      0.00      0.00      0.00
                                0.00      0.00      0.00
                                0.00      0.00      0.00

     XDM     stress (kbar)      0.00      0.00      0.00
                                0.00      0.00      0.00
                                0.00      0.00      0.00

     dft-nl  stress (kbar)      0.00      0.00      0.00
                                0.00      0.00      0.00
                                0.00      0.00      0.00

     TS-vdW  stress (kbar)      0.00      0.00      0.00
                                0.00      0.00      0.00
                                0.00      0.00      0.00

     MDB     stress (kbar)      0.00      0.00      0.00
                                0.00      0.00      0.00
                                0.00      0.00      0.00

     3D-RISM stress (kbar)      0.00      0.00      0.00
                                0.00      0.00      0.00
                                0.00      0.00      0.00

     Message from routine punch:
     Nothing written, as per user request (disk_io='none')

     init_run     :     70.62s CPU     73.91s WALL (       1 calls)
     electrons    :   9232.12s CPU   9678.20s WALL (       1 calls)
     forces       :     34.90s CPU     36.38s WALL (       1 calls)
     stress       :    782.50s CPU    799.11s WALL (       1 calls)

     Called by init_run:
     wfcinit      :     65.61s CPU     68.34s WALL (       1 calls)
     wfcinit:atom :      0.26s CPU      0.48s WALL (      14 calls)
     wfcinit:wfcr :     63.03s CPU     65.21s WALL (      14 calls)
     potinit      :      2.10s CPU      2.41s WALL (       1 calls)
     hinit0       :      1.37s CPU      1.45s WALL (       1 calls)

     Called by electrons:
     c_bands      :   7832.39s CPU   8199.13s WALL (      44 calls)
     sum_band     :   1322.64s CPU   1388.31s WALL (      44 calls)
     v_of_rho     :     44.97s CPU     52.78s WALL (      45 calls)
     v_h          :      1.08s CPU      1.30s WALL (      45 calls)
     v_xc         :     45.53s CPU     53.35s WALL (      47 calls)
     newd         :     11.19s CPU     13.72s WALL (      45 calls)
     PAW_pot      :     13.88s CPU     15.57s WALL (      45 calls)
     mix_rho      :      1.77s CPU      2.29s WALL (      44 calls)

     Called by c_bands:
     init_us_2    :     91.29s CPU     92.97s WALL (    1274 calls)
     cegterg      :   7217.72s CPU   7501.86s WALL (     616 calls)

     Called by sum_band:
     sum_band:wei :      1.43s CPU      1.66s WALL (      44 calls)
     sum_band:loo :   1256.00s CPU   1309.26s WALL (      44 calls)
     sum_band:buf :     12.70s CPU     13.52s WALL (     616 calls)
     sum_band:ini :     29.00s CPU     29.33s WALL (     616 calls)
     sum_band:cal :    322.68s CPU    337.24s WALL (     616 calls)
     sum_band:bec :      3.90s CPU      4.00s WALL (     616 calls)
     addusdens    :     12.12s CPU     14.87s WALL (      44 calls)
                                        0.00s GPU  (      44 calls)
     addusd:skk   :      0.53s CPU      0.68s WALL (      44 calls)
                                        0.00s GPU  (      44 calls)

     Called by *egterg:
     cdiaghg      :    317.23s CPU    356.25s WALL (    2103 calls)
     cegterg:over :    668.03s CPU    688.61s WALL (    1487 calls)
     cegterg:upda :    415.51s CPU    433.50s WALL (    1487 calls)
     cegterg:last :    875.43s CPU    899.73s WALL (    1041 calls)
     cdiaghg:chol :     26.41s CPU     30.40s WALL (    2103 calls)
     cdiaghg:inve :     27.29s CPU     32.22s WALL (    2103 calls)
     cdiaghg:para :     67.68s CPU     81.52s WALL (    4206 calls)
     h_psi        :   4069.30s CPU   4205.45s WALL (    2117 calls)
     s_psi        :    626.28s CPU    633.50s WALL (    2117 calls)
     g_psi        :      8.71s CPU      8.81s WALL (    1487 calls)

     Called by h_psi:
     h_psi:calbec :    671.79s CPU    696.40s WALL (    2117 calls)
     vloc_psi     :   2746.08s CPU   2831.03s WALL (    2117 calls)
     add_vuspsi   :    626.23s CPU    632.29s WALL (    2117 calls)

     General routines
     calbec       :   1068.61s CPU   1115.80s WALL (    2803 calls)
     fft          :     26.19s CPU     32.24s WALL (    1163 calls)
     ffts         :      1.19s CPU      1.50s WALL (     178 calls)
     fftw         :   1898.00s CPU   1992.54s WALL ( 1656326 calls)
     interpolate  :      3.39s CPU      3.96s WALL (      90 calls)

     Parallel routines

     PAW routines
     PAW_pot      :     13.88s CPU     15.57s WALL (      45 calls)
     PAW_symme    :      0.74s CPU      0.98s WALL (      89 calls)

     PWSCF        :  10120.40s CPU  10588.96s WALL


   This run was terminated on:  17:56:41  29May2025            

=------------------------------------------------------------------------------=
   JOB DONE.
=------------------------------------------------------------------------------=
