
     Program PWSCF v.7.3.1 starts on 19May2025 at  6: 9: 7 

     This program is part of the open-source Quantum ESPRESSO suite
     for quantum simulation of materials; please cite
         "P. Giannozzi et al., J. Phys.:Condens. Matter 21 395502 (2009);
         "P. Giannozzi et al., J. Phys.:Condens. Matter 29 465901 (2017);
         "P. Giannozzi et al., J. Chem. Phys. 152 154105 (2020);
          URL http://www.quantum-espresso.org", 
     in publications or presentations arising from this work. More details at
     http://www.quantum-espresso.org/quote

     Parallel version (MPI & OpenMP), running on     128 processor cores
     Number of MPI processes:               128
     Threads/MPI process:                     1

     MPI processes distributed on     1 nodes
     470281 MiB available memory on the printing compute node when the environment starts

     Waiting for input...
     Reading input from standard input

     Current dimensions of program PWSCF are:
     Max number of different atomic species (ntypx) = 10
     Max number of k-points (npk) =  40000
     Max angular momentum in pseudopotentials (lmaxx) =  4
     file Fe.pbe-spn-kjpaw_psl.1.0.0.UPF: wavefunction(s)  3P 3D renormalized

     K-points division:     npool     =      16
     R & G space division:  proc/nbgrp/npool/nimage =       8
     Subspace diagonalization in iterative solution of the eigenvalue problem:
     a serial algorithm will be used


     Parallelization info
     --------------------
     sticks:   dense  smooth     PW     G-vecs:    dense   smooth      PW
     Min         222      74     22                 5949     1147     199
     Max         223      75     23                 5951     1149     201
     Sum        1781     599    181                47597     9189    1601

     Using Slab Decomposition



     bravais-lattice index     =            3
     lattice parameter (alat)  =       5.4200  a.u.
     unit-cell volume          =      79.6100 (a.u.)^3
     number of atoms/cell      =            1
     number of atomic types    =            1
     number of electrons       =        16.00
     number of Kohn-Sham states=           12
     kinetic-energy cutoff     =      90.0000  Ry
     charge density cutoff     =    1080.0000  Ry
     scf convergence threshold =      1.0E-10
     mixing beta               =       0.2000
     number of iterations used =            8  plain     mixing
     Exchange-correlation= SLA  PW   PBX  PBC
                           (   1   4   3   4   0   0   0)

     celldm(1)=   5.420000  celldm(2)=   0.000000  celldm(3)=   0.000000
     celldm(4)=   0.000000  celldm(5)=   0.000000  celldm(6)=   0.000000

     crystal axes: (cart. coord. in units of alat)
               a(1) = (   0.500000   0.500000   0.500000 )  
               a(2) = (  -0.500000   0.500000   0.500000 )  
               a(3) = (  -0.500000  -0.500000   0.500000 )  

     reciprocal axes: (cart. coord. in units 2 pi/alat)
               b(1) = (  1.000000  0.000000  1.000000 )  
               b(2) = ( -1.000000  1.000000  0.000000 )  
               b(3) = (  0.000000 -1.000000  1.000000 )  


     PseudoPot. # 1 for Fe read from file:
     ../../../pseudopotentials/Fe.pbe-spn-kjpaw_psl.1.0.0.UPF
     MD5 check sum: fc81f059e5c5069939230b1155715ae8
     Pseudo is Projector augmented-wave + core cor, Zval = 16.0
     Generated using &quot;atomic&quot; code by A. Dal Corso  v.6.3
     Shape of augmentation charge: PSQ
     Using radial grid of 1191 points,  6 beta functions with: 
                l(1) =   0
                l(2) =   0
                l(3) =   1
                l(4) =   1
                l(5) =   2
                l(6) =   2
     Q(r) pseudized with 0 coefficients 


     atomic species   valence    mass     pseudopotential
     Fe               16.00    55.84500     Fe( 1.00)

     48 Sym. Ops., with inversion, found


                                    s                        frac. trans.

      isym =  1     identity                                     

 cryst.   s( 1) = (     1          0          0      )
                  (     0          1          0      )
                  (     0          0          1      )

 cart.    s( 1) = (  1.0000000  0.0000000  0.0000000 )
                  (  0.0000000  1.0000000  0.0000000 )
                  (  0.0000000  0.0000000  1.0000000 )


      isym =  2     180 deg rotation - cart. axis [0,0,1]        

 cryst.   s( 2) = (     0          0          1      )
                  (     1         -1          1      )
                  (     1          0          0      )

 cart.    s( 2) = ( -1.0000000  0.0000000  0.0000000 )
                  (  0.0000000 -1.0000000  0.0000000 )
                  (  0.0000000  0.0000000  1.0000000 )


      isym =  3     180 deg rotation - cart. axis [0,1,0]        

 cryst.   s( 3) = (    -1          1         -1      )
                  (     0          0         -1      )
                  (     0         -1          0      )

 cart.    s( 3) = ( -1.0000000  0.0000000  0.0000000 )
                  (  0.0000000  1.0000000  0.0000000 )
                  (  0.0000000  0.0000000 -1.0000000 )


      isym =  4     180 deg rotation - cart. axis [1,0,0]        

 cryst.   s( 4) = (     0         -1          0      )
                  (    -1          0          0      )
                  (    -1          1         -1      )

 cart.    s( 4) = (  1.0000000  0.0000000  0.0000000 )
                  (  0.0000000 -1.0000000  0.0000000 )
                  (  0.0000000  0.0000000 -1.0000000 )


      isym =  5     180 deg rotation - cart. axis [1,1,0]        

 cryst.   s( 5) = (     0          0         -1      )
                  (     0         -1          0      )
                  (    -1          0          0      )

 cart.    s( 5) = (  0.0000000  1.0000000  0.0000000 )
                  (  1.0000000  0.0000000  0.0000000 )
                  (  0.0000000  0.0000000 -1.0000000 )


      isym =  6     180 deg rotation - cart. axis [1,-1,0]       

 cryst.   s( 6) = (    -1          0          0      )
                  (    -1          1         -1      )
                  (     0          0         -1      )

 cart.    s( 6) = (  0.0000000 -1.0000000  0.0000000 )
                  ( -1.0000000  0.0000000  0.0000000 )
                  (  0.0000000  0.0000000 -1.0000000 )


      isym =  7      90 deg rotation - cart. axis [0,0,-1]       

 cryst.   s( 7) = (     1         -1          1      )
                  (     1          0          0      )
                  (     0          1          0      )

 cart.    s( 7) = (  0.0000000  1.0000000  0.0000000 )
                  ( -1.0000000  0.0000000  0.0000000 )
                  (  0.0000000  0.0000000  1.0000000 )


      isym =  8      90 deg rotation - cart. axis [0,0,1]        

 cryst.   s( 8) = (     0          1          0      )
                  (     0          0          1      )
                  (     1         -1          1      )

 cart.    s( 8) = (  0.0000000 -1.0000000  0.0000000 )
                  (  1.0000000  0.0000000  0.0000000 )
                  (  0.0000000  0.0000000  1.0000000 )


      isym =  9     180 deg rotation - cart. axis [1,0,1]        

 cryst.   s( 9) = (     1         -1          1      )
                  (     0         -1          0      )
                  (     0          0         -1      )

 cart.    s( 9) = (  0.0000000  0.0000000  1.0000000 )
                  (  0.0000000 -1.0000000  0.0000000 )
                  (  1.0000000  0.0000000  0.0000000 )


      isym = 10     180 deg rotation - cart. axis [-1,0,1]       

 cryst.   s(10) = (    -1          0          0      )
                  (     0          0          1      )
                  (     0          1          0      )

 cart.    s(10) = (  0.0000000  0.0000000 -1.0000000 )
                  (  0.0000000 -1.0000000  0.0000000 )
                  ( -1.0000000  0.0000000  0.0000000 )


      isym = 11      90 deg rotation - cart. axis [0,1,0]        

 cryst.   s(11) = (     0          0         -1      )
                  (     1          0          0      )
                  (     1         -1          1      )

 cart.    s(11) = (  0.0000000  0.0000000  1.0000000 )
                  (  0.0000000  1.0000000  0.0000000 )
                  ( -1.0000000  0.0000000  0.0000000 )


      isym = 12      90 deg rotation - cart. axis [0,-1,0]       

 cryst.   s(12) = (     0          1          0      )
                  (    -1          1         -1      )
                  (    -1          0          0      )

 cart.    s(12) = (  0.0000000  0.0000000 -1.0000000 )
                  (  0.0000000  1.0000000  0.0000000 )
                  (  1.0000000  0.0000000  0.0000000 )


      isym = 13     180 deg rotation - cart. axis [0,1,1]        

 cryst.   s(13) = (     0          1          0      )
                  (     1          0          0      )
                  (     0          0         -1      )

 cart.    s(13) = ( -1.0000000  0.0000000  0.0000000 )
                  (  0.0000000  0.0000000  1.0000000 )
                  (  0.0000000  1.0000000  0.0000000 )


      isym = 14     180 deg rotation - cart. axis [0,1,-1]       

 cryst.   s(14) = (    -1          0          0      )
                  (     0         -1          0      )
                  (     1         -1          1      )

 cart.    s(14) = ( -1.0000000  0.0000000  0.0000000 )
                  (  0.0000000  0.0000000 -1.0000000 )
                  (  0.0000000 -1.0000000  0.0000000 )


      isym = 15      90 deg rotation - cart. axis [-1,0,0]       

 cryst.   s(15) = (     0          0         -1      )
                  (    -1          1         -1      )
                  (     0          1          0      )

 cart.    s(15) = (  1.0000000  0.0000000  0.0000000 )
                  (  0.0000000  0.0000000  1.0000000 )
                  (  0.0000000 -1.0000000  0.0000000 )


      isym = 16      90 deg rotation - cart. axis [1,0,0]        

 cryst.   s(16) = (     1         -1          1      )
                  (     0          0          1      )
                  (    -1          0          0      )

 cart.    s(16) = (  1.0000000  0.0000000  0.0000000 )
                  (  0.0000000  0.0000000 -1.0000000 )
                  (  0.0000000  1.0000000  0.0000000 )


      isym = 17     120 deg rotation - cart. axis [-1,-1,-1]     

 cryst.   s(17) = (     1          0          0      )
                  (     0          0         -1      )
                  (    -1          1         -1      )

 cart.    s(17) = (  0.0000000  1.0000000  0.0000000 )
                  (  0.0000000  0.0000000  1.0000000 )
                  (  1.0000000  0.0000000  0.0000000 )


      isym = 18     120 deg rotation - cart. axis [-1,1,1]       

 cryst.   s(18) = (    -1          1         -1      )
                  (     0          1          0      )
                  (     1          0          0      )

 cart.    s(18) = (  0.0000000 -1.0000000  0.0000000 )
                  (  0.0000000  0.0000000  1.0000000 )
                  ( -1.0000000  0.0000000  0.0000000 )


      isym = 19     120 deg rotation - cart. axis [1,1,-1]       

 cryst.   s(19) = (     0         -1          0      )
                  (     1         -1          1      )
                  (     0          0          1      )

 cart.    s(19) = (  0.0000000  1.0000000  0.0000000 )
                  (  0.0000000  0.0000000 -1.0000000 )
                  ( -1.0000000  0.0000000  0.0000000 )


      isym = 20     120 deg rotation - cart. axis [1,-1,1]       

 cryst.   s(20) = (     0          0          1      )
                  (    -1          0          0      )
                  (     0         -1          0      )

 cart.    s(20) = (  0.0000000 -1.0000000  0.0000000 )
                  (  0.0000000  0.0000000 -1.0000000 )
                  (  1.0000000  0.0000000  0.0000000 )


      isym = 21     120 deg rotation - cart. axis [1,1,1]        

 cryst.   s(21) = (     1          0          0      )
                  (     1         -1          1      )
                  (     0         -1          0      )

 cart.    s(21) = (  0.0000000  0.0000000  1.0000000 )
                  (  1.0000000  0.0000000  0.0000000 )
                  (  0.0000000  1.0000000  0.0000000 )


      isym = 22     120 deg rotation - cart. axis [-1,1,-1]      

 cryst.   s(22) = (     0         -1          0      )
                  (     0          0         -1      )
                  (     1          0          0      )

 cart.    s(22) = (  0.0000000  0.0000000  1.0000000 )
                  ( -1.0000000  0.0000000  0.0000000 )
                  (  0.0000000 -1.0000000  0.0000000 )


      isym = 23     120 deg rotation - cart. axis [1,-1,-1]      

 cryst.   s(23) = (     0          0          1      )
                  (     0          1          0      )
                  (    -1          1         -1      )

 cart.    s(23) = (  0.0000000  0.0000000 -1.0000000 )
                  ( -1.0000000  0.0000000  0.0000000 )
                  (  0.0000000  1.0000000  0.0000000 )


      isym = 24     120 deg rotation - cart. axis [-1,-1,1]      

 cryst.   s(24) = (    -1          1         -1      )
                  (    -1          0          0      )
                  (     0          0          1      )

 cart.    s(24) = (  0.0000000  0.0000000 -1.0000000 )
                  (  1.0000000  0.0000000  0.0000000 )
                  (  0.0000000 -1.0000000  0.0000000 )


      isym = 25     inversion                                    

 cryst.   s(25) = (    -1          0          0      )
                  (     0         -1          0      )
                  (     0          0         -1      )

 cart.    s(25) = ( -1.0000000  0.0000000  0.0000000 )
                  (  0.0000000 -1.0000000  0.0000000 )
                  (  0.0000000  0.0000000 -1.0000000 )


      isym = 26     inv. 180 deg rotation - cart. axis [0,0,1]   

 cryst.   s(26) = (     0          0         -1      )
                  (    -1          1         -1      )
                  (    -1          0          0      )

 cart.    s(26) = (  1.0000000  0.0000000  0.0000000 )
                  (  0.0000000  1.0000000  0.0000000 )
                  (  0.0000000  0.0000000 -1.0000000 )


      isym = 27     inv. 180 deg rotation - cart. axis [0,1,0]   

 cryst.   s(27) = (     1         -1          1      )
                  (     0          0          1      )
                  (     0          1          0      )

 cart.    s(27) = (  1.0000000  0.0000000  0.0000000 )
                  (  0.0000000 -1.0000000  0.0000000 )
                  (  0.0000000  0.0000000  1.0000000 )


      isym = 28     inv. 180 deg rotation - cart. axis [1,0,0]   

 cryst.   s(28) = (     0          1          0      )
                  (     1          0          0      )
                  (     1         -1          1      )

 cart.    s(28) = ( -1.0000000  0.0000000  0.0000000 )
                  (  0.0000000  1.0000000  0.0000000 )
                  (  0.0000000  0.0000000  1.0000000 )


      isym = 29     inv. 180 deg rotation - cart. axis [1,1,0]   

 cryst.   s(29) = (     0          0          1      )
                  (     0          1          0      )
                  (     1          0          0      )

 cart.    s(29) = (  0.0000000 -1.0000000  0.0000000 )
                  ( -1.0000000  0.0000000  0.0000000 )
                  (  0.0000000  0.0000000  1.0000000 )


      isym = 30     inv. 180 deg rotation - cart. axis [1,-1,0]  

 cryst.   s(30) = (     1          0          0      )
                  (     1         -1          1      )
                  (     0          0          1      )

 cart.    s(30) = (  0.0000000  1.0000000  0.0000000 )
                  (  1.0000000  0.0000000  0.0000000 )
                  (  0.0000000  0.0000000  1.0000000 )


      isym = 31     inv.  90 deg rotation - cart. axis [0,0,-1]  

 cryst.   s(31) = (    -1          1         -1      )
                  (    -1          0          0      )
                  (     0         -1          0      )

 cart.    s(31) = (  0.0000000 -1.0000000  0.0000000 )
                  (  1.0000000  0.0000000  0.0000000 )
                  (  0.0000000  0.0000000 -1.0000000 )


      isym = 32     inv.  90 deg rotation - cart. axis [0,0,1]   

 cryst.   s(32) = (     0         -1          0      )
                  (     0          0         -1      )
                  (    -1          1         -1      )

 cart.    s(32) = (  0.0000000  1.0000000  0.0000000 )
                  ( -1.0000000  0.0000000  0.0000000 )
                  (  0.0000000  0.0000000 -1.0000000 )


      isym = 33     inv. 180 deg rotation - cart. axis [1,0,1]   

 cryst.   s(33) = (    -1          1         -1      )
                  (     0          1          0      )
                  (     0          0          1      )

 cart.    s(33) = (  0.0000000  0.0000000 -1.0000000 )
                  (  0.0000000  1.0000000  0.0000000 )
                  ( -1.0000000  0.0000000  0.0000000 )


      isym = 34     inv. 180 deg rotation - cart. axis [-1,0,1]  

 cryst.   s(34) = (     1          0          0      )
                  (     0          0         -1      )
                  (     0         -1          0      )

 cart.    s(34) = (  0.0000000  0.0000000  1.0000000 )
                  (  0.0000000  1.0000000  0.0000000 )
                  (  1.0000000  0.0000000  0.0000000 )


      isym = 35     inv.  90 deg rotation - cart. axis [0,1,0]   

 cryst.   s(35) = (     0          0          1      )
                  (    -1          0          0      )
                  (    -1          1         -1      )

 cart.    s(35) = (  0.0000000  0.0000000 -1.0000000 )
                  (  0.0000000 -1.0000000  0.0000000 )
                  (  1.0000000  0.0000000  0.0000000 )


      isym = 36     inv.  90 deg rotation - cart. axis [0,-1,0]  

 cryst.   s(36) = (     0         -1          0      )
                  (     1         -1          1      )
                  (     1          0          0      )

 cart.    s(36) = (  0.0000000  0.0000000  1.0000000 )
                  (  0.0000000 -1.0000000  0.0000000 )
                  ( -1.0000000  0.0000000  0.0000000 )


      isym = 37     inv. 180 deg rotation - cart. axis [0,1,1]   

 cryst.   s(37) = (     0         -1          0      )
                  (    -1          0          0      )
                  (     0          0          1      )

 cart.    s(37) = (  1.0000000  0.0000000  0.0000000 )
                  (  0.0000000  0.0000000 -1.0000000 )
                  (  0.0000000 -1.0000000  0.0000000 )


      isym = 38     inv. 180 deg rotation - cart. axis [0,1,-1]  

 cryst.   s(38) = (     1          0          0      )
                  (     0          1          0      )
                  (    -1          1         -1      )

 cart.    s(38) = (  1.0000000  0.0000000  0.0000000 )
                  (  0.0000000  0.0000000  1.0000000 )
                  (  0.0000000  1.0000000  0.0000000 )


      isym = 39     inv.  90 deg rotation - cart. axis [-1,0,0]  

 cryst.   s(39) = (     0          0          1      )
                  (     1         -1          1      )
                  (     0         -1          0      )

 cart.    s(39) = ( -1.0000000  0.0000000  0.0000000 )
                  (  0.0000000  0.0000000 -1.0000000 )
                  (  0.0000000  1.0000000  0.0000000 )


      isym = 40     inv.  90 deg rotation - cart. axis [1,0,0]   

 cryst.   s(40) = (    -1          1         -1      )
                  (     0          0         -1      )
                  (     1          0          0      )

 cart.    s(40) = ( -1.0000000  0.0000000  0.0000000 )
                  (  0.0000000  0.0000000  1.0000000 )
                  (  0.0000000 -1.0000000  0.0000000 )


      isym = 41     inv. 120 deg rotation - cart. axis [-1,-1,-1]

 cryst.   s(41) = (    -1          0          0      )
                  (     0          0          1      )
                  (     1         -1          1      )

 cart.    s(41) = (  0.0000000 -1.0000000  0.0000000 )
                  (  0.0000000  0.0000000 -1.0000000 )
                  ( -1.0000000  0.0000000  0.0000000 )


      isym = 42     inv. 120 deg rotation - cart. axis [-1,1,1]  

 cryst.   s(42) = (     1         -1          1      )
                  (     0         -1          0      )
                  (    -1          0          0      )

 cart.    s(42) = (  0.0000000  1.0000000  0.0000000 )
                  (  0.0000000  0.0000000 -1.0000000 )
                  (  1.0000000  0.0000000  0.0000000 )


      isym = 43     inv. 120 deg rotation - cart. axis [1,1,-1]  

 cryst.   s(43) = (     0          1          0      )
                  (    -1          1         -1      )
                  (     0          0         -1      )

 cart.    s(43) = (  0.0000000 -1.0000000  0.0000000 )
                  (  0.0000000  0.0000000  1.0000000 )
                  (  1.0000000  0.0000000  0.0000000 )


      isym = 44     inv. 120 deg rotation - cart. axis [1,-1,1]  

 cryst.   s(44) = (     0          0         -1      )
                  (     1          0          0      )
                  (     0          1          0      )

 cart.    s(44) = (  0.0000000  1.0000000  0.0000000 )
                  (  0.0000000  0.0000000  1.0000000 )
                  ( -1.0000000  0.0000000  0.0000000 )


      isym = 45     inv. 120 deg rotation - cart. axis [1,1,1]   

 cryst.   s(45) = (    -1          0          0      )
                  (    -1          1         -1      )
                  (     0          1          0      )

 cart.    s(45) = (  0.0000000  0.0000000 -1.0000000 )
                  ( -1.0000000  0.0000000  0.0000000 )
                  (  0.0000000 -1.0000000  0.0000000 )


      isym = 46     inv. 120 deg rotation - cart. axis [-1,1,-1] 

 cryst.   s(46) = (     0          1          0      )
                  (     0          0          1      )
                  (    -1          0          0      )

 cart.    s(46) = (  0.0000000  0.0000000 -1.0000000 )
                  (  1.0000000  0.0000000  0.0000000 )
                  (  0.0000000  1.0000000  0.0000000 )


      isym = 47     inv. 120 deg rotation - cart. axis [1,-1,-1] 

 cryst.   s(47) = (     0          0         -1      )
                  (     0         -1          0      )
                  (     1         -1          1      )

 cart.    s(47) = (  0.0000000  0.0000000  1.0000000 )
                  (  1.0000000  0.0000000  0.0000000 )
                  (  0.0000000 -1.0000000  0.0000000 )


      isym = 48     inv. 120 deg rotation - cart. axis [-1,-1,1] 

 cryst.   s(48) = (     1         -1          1      )
                  (     1          0          0      )
                  (     0          0         -1      )

 cart.    s(48) = (  0.0000000  0.0000000  1.0000000 )
                  ( -1.0000000  0.0000000  0.0000000 )
                  (  0.0000000  1.0000000  0.0000000 )


     point group O_h (m-3m) 
     there are 10 classes
     the character table:

       E     8C3   3C2   6C4   6C2'  i     8S6   3s_h  6S4   6s_d 
A_1g   1.00  1.00  1.00  1.00  1.00  1.00  1.00  1.00  1.00  1.00
A_2g   1.00  1.00  1.00 -1.00 -1.00  1.00  1.00  1.00 -1.00 -1.00
E_g    2.00 -1.00  2.00  0.00  0.00  2.00 -1.00  2.00  0.00  0.00
T_1g   3.00  0.00 -1.00  1.00 -1.00  3.00  0.00 -1.00  1.00 -1.00
T_2g   3.00  0.00 -1.00 -1.00  1.00  3.00  0.00 -1.00 -1.00  1.00
A_1u   1.00  1.00  1.00  1.00  1.00 -1.00 -1.00 -1.00 -1.00 -1.00
A_2u   1.00  1.00  1.00 -1.00 -1.00 -1.00 -1.00 -1.00  1.00  1.00
E_u    2.00 -1.00  2.00  0.00  0.00 -2.00  1.00 -2.00  0.00  0.00
T_1u   3.00  0.00 -1.00  1.00 -1.00 -3.00  0.00  1.00 -1.00  1.00
T_2u   3.00  0.00 -1.00 -1.00  1.00 -3.00  0.00  1.00  1.00 -1.00

     the symmetry operations in each class and the name of the first element:

     E        1
          identity                                               
     8C3     17   19   20   18   24   21   22   23
          120 deg rotation - cart. axis [-1,-1,-1]               
     3C2      2    4    3
          180 deg rotation - cart. axis [0,0,1]                  
     6C4      7    8   15   16   12   11
           90 deg rotation - cart. axis [0,0,-1]                 
     6C2'     5    6   14   13   10    9
          180 deg rotation - cart. axis [1,1,0]                  
     i       25
          inversion                                              
     8S6     41   43   44   42   48   45   46   47
          inv. 120 deg rotation - cart. axis [-1,-1,-1]          
     3s_h    26   28   27
          inv. 180 deg rotation - cart. axis [0,0,1]             
     6S4     31   32   39   40   36   35
          inv.  90 deg rotation - cart. axis [0,0,-1]            
     6s_d    29   30   38   37   34   33
          inv. 180 deg rotation - cart. axis [1,1,0]             

   Cartesian axes

     site n.     atom                  positions (alat units)
         1        Fe     tau(   1) = (   0.0000000   0.0000000   0.0000000  )

   Crystallographic axes

     site n.     atom                  positions (cryst. coord.)
         1        Fe     tau(   1) = (  0.0000000  0.0000000  0.0000000  )

     number of k points=   145  Marzari-Vanderbilt smearing, width (Ry)=  0.0100
                       cart. coord. in units 2pi/alat
        k(    1) = (   0.0000000   0.0000000   0.0000000), wk =   0.0004883
        k(    2) = (   0.0000000  -0.0625000   0.0625000), wk =   0.0058594
        k(    3) = (   0.0000000  -0.1250000   0.1250000), wk =   0.0058594
        k(    4) = (   0.0000000  -0.1875000   0.1875000), wk =   0.0058594
        k(    5) = (   0.0000000  -0.2500000   0.2500000), wk =   0.0058594
        k(    6) = (   0.0000000  -0.3125000   0.3125000), wk =   0.0058594
        k(    7) = (   0.0000000  -0.3750000   0.3750000), wk =   0.0058594
        k(    8) = (   0.0000000  -0.4375000   0.4375000), wk =   0.0058594
        k(    9) = (   0.0000000   0.5000000  -0.5000000), wk =   0.0029297
        k(   10) = (  -0.0625000  -0.0625000   0.1250000), wk =   0.0117188
        k(   11) = (  -0.0625000  -0.1250000   0.1875000), wk =   0.0234375
        k(   12) = (  -0.0625000  -0.1875000   0.2500000), wk =   0.0234375
        k(   13) = (  -0.0625000  -0.2500000   0.3125000), wk =   0.0234375
        k(   14) = (  -0.0625000  -0.3125000   0.3750000), wk =   0.0234375
        k(   15) = (  -0.0625000  -0.3750000   0.4375000), wk =   0.0234375
        k(   16) = (  -0.0625000   0.5625000  -0.5000000), wk =   0.0234375
        k(   17) = (  -0.1250000  -0.1250000   0.2500000), wk =   0.0117188
        k(   18) = (  -0.1250000  -0.1875000   0.3125000), wk =   0.0234375
        k(   19) = (  -0.1250000  -0.2500000   0.3750000), wk =   0.0234375
        k(   20) = (  -0.1250000  -0.3125000   0.4375000), wk =   0.0234375
        k(   21) = (  -0.1250000   0.6250000  -0.5000000), wk =   0.0234375
        k(   22) = (  -0.1250000   0.5625000  -0.4375000), wk =   0.0117188
        k(   23) = (  -0.1875000  -0.1875000   0.3750000), wk =   0.0117188
        k(   24) = (  -0.1875000  -0.2500000   0.4375000), wk =   0.0234375
        k(   25) = (  -0.1875000   0.6875000  -0.5000000), wk =   0.0234375
        k(   26) = (  -0.1875000   0.6250000  -0.4375000), wk =   0.0234375
        k(   27) = (  -0.2500000   0.7500000  -0.5000000), wk =   0.0117188
        k(   28) = (  -0.2500000   0.6875000  -0.4375000), wk =   0.0234375
        k(   29) = (  -0.2500000   0.6250000  -0.3750000), wk =   0.0117188
        k(   30) = (  -0.3125000   0.6875000  -0.3750000), wk =   0.0117188
        k(   31) = (   0.0000000   0.0000000   0.1250000), wk =   0.0029297
        k(   32) = (   0.0000000  -0.0625000   0.1875000), wk =   0.0117188
        k(   33) = (   0.0000000  -0.1250000   0.2500000), wk =   0.0117188
        k(   34) = (   0.0000000  -0.1875000   0.3125000), wk =   0.0117188
        k(   35) = (   0.0000000  -0.2500000   0.3750000), wk =   0.0117188
        k(   36) = (   0.0000000  -0.3125000   0.4375000), wk =   0.0117188
        k(   37) = (   0.0000000  -0.3750000   0.5000000), wk =   0.0117188
        k(   38) = (   0.0000000   0.5625000  -0.4375000), wk =   0.0058594
        k(   39) = (  -0.0625000  -0.0625000   0.2500000), wk =   0.0117188
        k(   40) = (  -0.0625000  -0.1250000   0.3125000), wk =   0.0234375
        k(   41) = (  -0.0625000  -0.1875000   0.3750000), wk =   0.0234375
        k(   42) = (  -0.0625000  -0.2500000   0.4375000), wk =   0.0234375
        k(   43) = (  -0.0625000  -0.3125000   0.5000000), wk =   0.0234375
        k(   44) = (  -0.0625000   0.6250000  -0.4375000), wk =   0.0234375
        k(   45) = (  -0.1250000   0.1250000   0.1250000), wk =   0.0039062
        k(   46) = (  -0.1250000  -0.1250000   0.3750000), wk =   0.0117188
        k(   47) = (  -0.1250000  -0.1875000   0.4375000), wk =   0.0234375
        k(   48) = (  -0.1250000  -0.2500000   0.5000000), wk =   0.0234375
        k(   49) = (  -0.1250000   0.6875000  -0.4375000), wk =   0.0234375
        k(   50) = (  -0.1250000   0.6250000  -0.3750000), wk =   0.0117188
        k(   51) = (  -0.1875000   0.1875000   0.1250000), wk =   0.0117188
        k(   52) = (  -0.1875000  -0.1875000   0.5000000), wk =   0.0117188
        k(   53) = (  -0.1875000   0.7500000  -0.4375000), wk =   0.0234375
        k(   54) = (  -0.1875000   0.6875000  -0.3750000), wk =   0.0234375
        k(   55) = (  -0.2500000   0.2500000   0.1250000), wk =   0.0117188
        k(   56) = (  -0.2500000   0.1875000   0.1875000), wk =   0.0117188
        k(   57) = (  -0.2500000   0.7500000  -0.3750000), wk =   0.0117188
        k(   58) = (  -0.2500000   0.6875000  -0.3125000), wk =   0.0117188
        k(   59) = (  -0.3125000   0.3125000   0.1250000), wk =   0.0117188
        k(   60) = (  -0.3125000   0.2500000   0.1875000), wk =   0.0234375
        k(   61) = (  -0.3750000   0.3750000   0.1250000), wk =   0.0117188
        k(   62) = (  -0.3750000   0.3125000   0.1875000), wk =   0.0234375
        k(   63) = (  -0.3750000   0.2500000   0.2500000), wk =   0.0117188
        k(   64) = (   0.5625000  -0.5625000   0.1250000), wk =   0.0117188
        k(   65) = (   0.5625000  -0.6250000   0.1875000), wk =   0.0234375
        k(   66) = (   0.5625000  -0.6875000   0.2500000), wk =   0.0234375
        k(   67) = (   0.5000000  -0.5000000   0.1250000), wk =   0.0058594
        k(   68) = (   0.5000000  -0.5625000   0.1875000), wk =   0.0234375
        k(   69) = (   0.5000000  -0.6250000   0.2500000), wk =   0.0234375
        k(   70) = (   0.5000000  -0.6875000   0.3125000), wk =   0.0117188
        k(   71) = (   0.4375000  -0.5625000   0.2500000), wk =   0.0117188
        k(   72) = (   0.4375000  -0.6250000   0.3125000), wk =   0.0234375
        k(   73) = (   0.3750000  -0.6250000   0.3750000), wk =   0.0039062
        k(   74) = (   0.0000000   0.0000000   0.2500000), wk =   0.0029297
        k(   75) = (   0.0000000  -0.0625000   0.3125000), wk =   0.0117188
        k(   76) = (   0.0000000  -0.1250000   0.3750000), wk =   0.0117188
        k(   77) = (   0.0000000  -0.1875000   0.4375000), wk =   0.0117188
        k(   78) = (   0.0000000  -0.2500000   0.5000000), wk =   0.0117188
        k(   79) = (   0.0000000  -0.3125000   0.5625000), wk =   0.0117188
        k(   80) = (   0.0000000   0.6250000  -0.3750000), wk =   0.0058594
        k(   81) = (  -0.0625000  -0.0625000   0.3750000), wk =   0.0117188
        k(   82) = (  -0.0625000  -0.1250000   0.4375000), wk =   0.0234375
        k(   83) = (  -0.0625000  -0.1875000   0.5000000), wk =   0.0234375
        k(   84) = (  -0.0625000  -0.2500000   0.5625000), wk =   0.0234375
        k(   85) = (  -0.0625000   0.6875000  -0.3750000), wk =   0.0234375
        k(   86) = (  -0.1250000  -0.1250000   0.5000000), wk =   0.0117188
        k(   87) = (  -0.1250000  -0.1875000   0.5625000), wk =   0.0234375
        k(   88) = (  -0.1250000   0.7500000  -0.3750000), wk =   0.0234375
        k(   89) = (  -0.1250000   0.6875000  -0.3125000), wk =   0.0117188
        k(   90) = (  -0.1875000   0.8125000  -0.3750000), wk =   0.0117188
        k(   91) = (  -0.1875000   0.7500000  -0.3125000), wk =   0.0234375
        k(   92) = (  -0.2500000   0.2500000   0.2500000), wk =   0.0039062
        k(   93) = (  -0.2500000   0.7500000  -0.2500000), wk =   0.0039062
        k(   94) = (  -0.3125000   0.3125000   0.2500000), wk =   0.0117188
        k(   95) = (   0.6250000  -0.6250000   0.2500000), wk =   0.0117188
        k(   96) = (   0.6250000  -0.6875000   0.3125000), wk =   0.0117188
        k(   97) = (   0.5625000  -0.5625000   0.2500000), wk =   0.0117188
        k(   98) = (   0.5625000  -0.6250000   0.3125000), wk =   0.0234375
        k(   99) = (   0.5000000  -0.5000000   0.2500000), wk =   0.0058594
        k(  100) = (   0.5000000  -0.5625000   0.3125000), wk =   0.0234375
        k(  101) = (   0.5000000  -0.6250000   0.3750000), wk =   0.0117188
        k(  102) = (   0.4375000  -0.5625000   0.3750000), wk =   0.0117188
        k(  103) = (   0.0000000   0.0000000   0.3750000), wk =   0.0029297
        k(  104) = (   0.0000000  -0.0625000   0.4375000), wk =   0.0117188
        k(  105) = (   0.0000000  -0.1250000   0.5000000), wk =   0.0117188
        k(  106) = (   0.0000000  -0.1875000   0.5625000), wk =   0.0117188
        k(  107) = (   0.0000000  -0.2500000   0.6250000), wk =   0.0117188
        k(  108) = (   0.0000000   0.6875000  -0.3125000), wk =   0.0058594
        k(  109) = (  -0.0625000  -0.0625000   0.5000000), wk =   0.0117188
        k(  110) = (  -0.0625000  -0.1250000   0.5625000), wk =   0.0234375
        k(  111) = (  -0.0625000  -0.1875000   0.6250000), wk =   0.0234375
        k(  112) = (  -0.0625000   0.7500000  -0.3125000), wk =   0.0234375
        k(  113) = (  -0.1250000  -0.1250000   0.6250000), wk =   0.0117188
        k(  114) = (  -0.1250000   0.8125000  -0.3125000), wk =   0.0234375
        k(  115) = (  -0.1250000   0.7500000  -0.2500000), wk =   0.0117188
        k(  116) = (  -0.1875000   0.8125000  -0.2500000), wk =   0.0117188
        k(  117) = (   0.6250000  -0.6250000   0.3750000), wk =   0.0039062
        k(  118) = (   0.5625000  -0.5625000   0.3750000), wk =   0.0117188
        k(  119) = (   0.5000000  -0.5000000   0.3750000), wk =   0.0058594
        k(  120) = (   0.5000000  -0.5625000   0.4375000), wk =   0.0117188
        k(  121) = (   0.0000000   0.0000000   0.5000000), wk =   0.0029297
        k(  122) = (   0.0000000  -0.0625000   0.5625000), wk =   0.0117188
        k(  123) = (   0.0000000  -0.1250000   0.6250000), wk =   0.0117188
        k(  124) = (   0.0000000  -0.1875000   0.6875000), wk =   0.0117188
        k(  125) = (   0.0000000   0.7500000  -0.2500000), wk =   0.0058594
        k(  126) = (  -0.0625000  -0.0625000   0.6250000), wk =   0.0117188
        k(  127) = (  -0.0625000  -0.1250000   0.6875000), wk =   0.0234375
        k(  128) = (  -0.0625000   0.8125000  -0.2500000), wk =   0.0234375
        k(  129) = (  -0.1250000   0.8750000  -0.2500000), wk =   0.0117188
        k(  130) = (  -0.1250000   0.8125000  -0.1875000), wk =   0.0117188
        k(  131) = (   0.5000000  -0.5000000   0.5000000), wk =   0.0009766
        k(  132) = (   0.0000000   0.0000000   0.6250000), wk =   0.0029297
        k(  133) = (   0.0000000  -0.0625000   0.6875000), wk =   0.0117188
        k(  134) = (   0.0000000  -0.1250000   0.7500000), wk =   0.0117188
        k(  135) = (   0.0000000   0.8125000  -0.1875000), wk =   0.0058594
        k(  136) = (  -0.0625000  -0.0625000   0.7500000), wk =   0.0117188
        k(  137) = (  -0.0625000   0.8750000  -0.1875000), wk =   0.0234375
        k(  138) = (  -0.1250000   0.8750000  -0.1250000), wk =   0.0039062
        k(  139) = (   0.0000000   0.0000000   0.7500000), wk =   0.0029297
        k(  140) = (   0.0000000  -0.0625000   0.8125000), wk =   0.0117188
        k(  141) = (   0.0000000   0.8750000  -0.1250000), wk =   0.0058594
        k(  142) = (  -0.0625000   0.9375000  -0.1250000), wk =   0.0117188
        k(  143) = (   0.0000000   0.0000000   0.8750000), wk =   0.0029297
        k(  144) = (   0.0000000   0.9375000  -0.0625000), wk =   0.0058594
        k(  145) = (   0.0000000   0.0000000  -1.0000000), wk =   0.0004883

                       cryst. coord.
        k(    1) = (   0.0000000   0.0000000   0.0000000), wk =   0.0004883
        k(    2) = (   0.0000000   0.0000000   0.0625000), wk =   0.0058594
        k(    3) = (   0.0000000   0.0000000   0.1250000), wk =   0.0058594
        k(    4) = (   0.0000000   0.0000000   0.1875000), wk =   0.0058594
        k(    5) = (   0.0000000   0.0000000   0.2500000), wk =   0.0058594
        k(    6) = (   0.0000000   0.0000000   0.3125000), wk =   0.0058594
        k(    7) = (   0.0000000   0.0000000   0.3750000), wk =   0.0058594
        k(    8) = (   0.0000000   0.0000000   0.4375000), wk =   0.0058594
        k(    9) = (   0.0000000   0.0000000  -0.5000000), wk =   0.0029297
        k(   10) = (   0.0000000   0.0625000   0.1250000), wk =   0.0117188
        k(   11) = (   0.0000000   0.0625000   0.1875000), wk =   0.0234375
        k(   12) = (   0.0000000   0.0625000   0.2500000), wk =   0.0234375
        k(   13) = (   0.0000000   0.0625000   0.3125000), wk =   0.0234375
        k(   14) = (   0.0000000   0.0625000   0.3750000), wk =   0.0234375
        k(   15) = (   0.0000000   0.0625000   0.4375000), wk =   0.0234375
        k(   16) = (   0.0000000   0.0625000  -0.5000000), wk =   0.0234375
        k(   17) = (   0.0000000   0.1250000   0.2500000), wk =   0.0117188
        k(   18) = (   0.0000000   0.1250000   0.3125000), wk =   0.0234375
        k(   19) = (   0.0000000   0.1250000   0.3750000), wk =   0.0234375
        k(   20) = (   0.0000000   0.1250000   0.4375000), wk =   0.0234375
        k(   21) = (   0.0000000   0.1250000  -0.5000000), wk =   0.0234375
        k(   22) = (   0.0000000   0.1250000  -0.4375000), wk =   0.0117188
        k(   23) = (   0.0000000   0.1875000   0.3750000), wk =   0.0117188
        k(   24) = (   0.0000000   0.1875000   0.4375000), wk =   0.0234375
        k(   25) = (   0.0000000   0.1875000  -0.5000000), wk =   0.0234375
        k(   26) = (   0.0000000   0.1875000  -0.4375000), wk =   0.0234375
        k(   27) = (   0.0000000   0.2500000  -0.5000000), wk =   0.0117188
        k(   28) = (   0.0000000   0.2500000  -0.4375000), wk =   0.0234375
        k(   29) = (   0.0000000   0.2500000  -0.3750000), wk =   0.0117188
        k(   30) = (   0.0000000   0.3125000  -0.3750000), wk =   0.0117188
        k(   31) = (   0.0625000   0.0625000   0.0625000), wk =   0.0029297
        k(   32) = (   0.0625000   0.0625000   0.1250000), wk =   0.0117188
        k(   33) = (   0.0625000   0.0625000   0.1875000), wk =   0.0117188
        k(   34) = (   0.0625000   0.0625000   0.2500000), wk =   0.0117188
        k(   35) = (   0.0625000   0.0625000   0.3125000), wk =   0.0117188
        k(   36) = (   0.0625000   0.0625000   0.3750000), wk =   0.0117188
        k(   37) = (   0.0625000   0.0625000   0.4375000), wk =   0.0117188
        k(   38) = (   0.0625000   0.0625000  -0.5000000), wk =   0.0058594
        k(   39) = (   0.0625000   0.1250000   0.1875000), wk =   0.0117188
        k(   40) = (   0.0625000   0.1250000   0.2500000), wk =   0.0234375
        k(   41) = (   0.0625000   0.1250000   0.3125000), wk =   0.0234375
        k(   42) = (   0.0625000   0.1250000   0.3750000), wk =   0.0234375
        k(   43) = (   0.0625000   0.1250000   0.4375000), wk =   0.0234375
        k(   44) = (   0.0625000   0.1250000  -0.5000000), wk =   0.0234375
        k(   45) = (   0.0625000   0.1875000   0.0625000), wk =   0.0039062
        k(   46) = (   0.0625000   0.1875000   0.3125000), wk =   0.0117188
        k(   47) = (   0.0625000   0.1875000   0.3750000), wk =   0.0234375
        k(   48) = (   0.0625000   0.1875000   0.4375000), wk =   0.0234375
        k(   49) = (   0.0625000   0.1875000  -0.5000000), wk =   0.0234375
        k(   50) = (   0.0625000   0.1875000  -0.4375000), wk =   0.0117188
        k(   51) = (   0.0625000   0.2500000   0.0625000), wk =   0.0117188
        k(   52) = (   0.0625000   0.2500000   0.4375000), wk =   0.0117188
        k(   53) = (   0.0625000   0.2500000  -0.5000000), wk =   0.0234375
        k(   54) = (   0.0625000   0.2500000  -0.4375000), wk =   0.0234375
        k(   55) = (   0.0625000   0.3125000   0.0625000), wk =   0.0117188
        k(   56) = (   0.0625000   0.3125000   0.1250000), wk =   0.0117188
        k(   57) = (   0.0625000   0.3125000  -0.4375000), wk =   0.0117188
        k(   58) = (   0.0625000   0.3125000  -0.3750000), wk =   0.0117188
        k(   59) = (   0.0625000   0.3750000   0.0625000), wk =   0.0117188
        k(   60) = (   0.0625000   0.3750000   0.1250000), wk =   0.0234375
        k(   61) = (   0.0625000   0.4375000   0.0625000), wk =   0.0117188
        k(   62) = (   0.0625000   0.4375000   0.1250000), wk =   0.0234375
        k(   63) = (   0.0625000   0.4375000   0.1875000), wk =   0.0117188
        k(   64) = (   0.0625000  -0.5000000   0.0625000), wk =   0.0117188
        k(   65) = (   0.0625000  -0.5000000   0.1250000), wk =   0.0234375
        k(   66) = (   0.0625000  -0.5000000   0.1875000), wk =   0.0234375
        k(   67) = (   0.0625000  -0.4375000   0.0625000), wk =   0.0058594
        k(   68) = (   0.0625000  -0.4375000   0.1250000), wk =   0.0234375
        k(   69) = (   0.0625000  -0.4375000   0.1875000), wk =   0.0234375
        k(   70) = (   0.0625000  -0.4375000   0.2500000), wk =   0.0117188
        k(   71) = (   0.0625000  -0.3750000   0.1875000), wk =   0.0117188
        k(   72) = (   0.0625000  -0.3750000   0.2500000), wk =   0.0234375
        k(   73) = (   0.0625000  -0.3125000   0.3125000), wk =   0.0039062
        k(   74) = (   0.1250000   0.1250000   0.1250000), wk =   0.0029297
        k(   75) = (   0.1250000   0.1250000   0.1875000), wk =   0.0117188
        k(   76) = (   0.1250000   0.1250000   0.2500000), wk =   0.0117188
        k(   77) = (   0.1250000   0.1250000   0.3125000), wk =   0.0117188
        k(   78) = (   0.1250000   0.1250000   0.3750000), wk =   0.0117188
        k(   79) = (   0.1250000   0.1250000   0.4375000), wk =   0.0117188
        k(   80) = (   0.1250000   0.1250000  -0.5000000), wk =   0.0058594
        k(   81) = (   0.1250000   0.1875000   0.2500000), wk =   0.0117188
        k(   82) = (   0.1250000   0.1875000   0.3125000), wk =   0.0234375
        k(   83) = (   0.1250000   0.1875000   0.3750000), wk =   0.0234375
        k(   84) = (   0.1250000   0.1875000   0.4375000), wk =   0.0234375
        k(   85) = (   0.1250000   0.1875000  -0.5000000), wk =   0.0234375
        k(   86) = (   0.1250000   0.2500000   0.3750000), wk =   0.0117188
        k(   87) = (   0.1250000   0.2500000   0.4375000), wk =   0.0234375
        k(   88) = (   0.1250000   0.2500000  -0.5000000), wk =   0.0234375
        k(   89) = (   0.1250000   0.2500000  -0.4375000), wk =   0.0117188
        k(   90) = (   0.1250000   0.3125000  -0.5000000), wk =   0.0117188
        k(   91) = (   0.1250000   0.3125000  -0.4375000), wk =   0.0234375
        k(   92) = (   0.1250000   0.3750000   0.1250000), wk =   0.0039062
        k(   93) = (   0.1250000   0.3750000  -0.3750000), wk =   0.0039062
        k(   94) = (   0.1250000   0.4375000   0.1250000), wk =   0.0117188
        k(   95) = (   0.1250000  -0.5000000   0.1250000), wk =   0.0117188
        k(   96) = (   0.1250000  -0.5000000   0.1875000), wk =   0.0117188
        k(   97) = (   0.1250000  -0.4375000   0.1250000), wk =   0.0117188
        k(   98) = (   0.1250000  -0.4375000   0.1875000), wk =   0.0234375
        k(   99) = (   0.1250000  -0.3750000   0.1250000), wk =   0.0058594
        k(  100) = (   0.1250000  -0.3750000   0.1875000), wk =   0.0234375
        k(  101) = (   0.1250000  -0.3750000   0.2500000), wk =   0.0117188
        k(  102) = (   0.1250000  -0.3125000   0.2500000), wk =   0.0117188
        k(  103) = (   0.1875000   0.1875000   0.1875000), wk =   0.0029297
        k(  104) = (   0.1875000   0.1875000   0.2500000), wk =   0.0117188
        k(  105) = (   0.1875000   0.1875000   0.3125000), wk =   0.0117188
        k(  106) = (   0.1875000   0.1875000   0.3750000), wk =   0.0117188
        k(  107) = (   0.1875000   0.1875000   0.4375000), wk =   0.0117188
        k(  108) = (   0.1875000   0.1875000  -0.5000000), wk =   0.0058594
        k(  109) = (   0.1875000   0.2500000   0.3125000), wk =   0.0117188
        k(  110) = (   0.1875000   0.2500000   0.3750000), wk =   0.0234375
        k(  111) = (   0.1875000   0.2500000   0.4375000), wk =   0.0234375
        k(  112) = (   0.1875000   0.2500000  -0.5000000), wk =   0.0234375
        k(  113) = (   0.1875000   0.3125000   0.4375000), wk =   0.0117188
        k(  114) = (   0.1875000   0.3125000  -0.5000000), wk =   0.0234375
        k(  115) = (   0.1875000   0.3125000  -0.4375000), wk =   0.0117188
        k(  116) = (   0.1875000   0.3750000  -0.4375000), wk =   0.0117188
        k(  117) = (   0.1875000  -0.4375000   0.1875000), wk =   0.0039062
        k(  118) = (   0.1875000  -0.3750000   0.1875000), wk =   0.0117188
        k(  119) = (   0.1875000  -0.3125000   0.1875000), wk =   0.0058594
        k(  120) = (   0.1875000  -0.3125000   0.2500000), wk =   0.0117188
        k(  121) = (   0.2500000   0.2500000   0.2500000), wk =   0.0029297
        k(  122) = (   0.2500000   0.2500000   0.3125000), wk =   0.0117188
        k(  123) = (   0.2500000   0.2500000   0.3750000), wk =   0.0117188
        k(  124) = (   0.2500000   0.2500000   0.4375000), wk =   0.0117188
        k(  125) = (   0.2500000   0.2500000  -0.5000000), wk =   0.0058594
        k(  126) = (   0.2500000   0.3125000   0.3750000), wk =   0.0117188
        k(  127) = (   0.2500000   0.3125000   0.4375000), wk =   0.0234375
        k(  128) = (   0.2500000   0.3125000  -0.5000000), wk =   0.0234375
        k(  129) = (   0.2500000   0.3750000  -0.5000000), wk =   0.0117188
        k(  130) = (   0.2500000   0.3750000  -0.4375000), wk =   0.0117188
        k(  131) = (   0.2500000  -0.2500000   0.2500000), wk =   0.0009766
        k(  132) = (   0.3125000   0.3125000   0.3125000), wk =   0.0029297
        k(  133) = (   0.3125000   0.3125000   0.3750000), wk =   0.0117188
        k(  134) = (   0.3125000   0.3125000   0.4375000), wk =   0.0117188
        k(  135) = (   0.3125000   0.3125000  -0.5000000), wk =   0.0058594
        k(  136) = (   0.3125000   0.3750000   0.4375000), wk =   0.0117188
        k(  137) = (   0.3125000   0.3750000  -0.5000000), wk =   0.0234375
        k(  138) = (   0.3125000   0.4375000  -0.4375000), wk =   0.0039062
        k(  139) = (   0.3750000   0.3750000   0.3750000), wk =   0.0029297
        k(  140) = (   0.3750000   0.3750000   0.4375000), wk =   0.0117188
        k(  141) = (   0.3750000   0.3750000  -0.5000000), wk =   0.0058594
        k(  142) = (   0.3750000   0.4375000  -0.5000000), wk =   0.0117188
        k(  143) = (   0.4375000   0.4375000   0.4375000), wk =   0.0029297
        k(  144) = (   0.4375000   0.4375000  -0.5000000), wk =   0.0058594
        k(  145) = (  -0.5000000  -0.5000000  -0.5000000), wk =   0.0004883

     Dense  grid:    47597 G-vectors     FFT dimensions: (  50,  50,  50)

     Smooth grid:     9189 G-vectors     FFT dimensions: (  30,  30,  30)

     Dynamical RAM for                 wfc:       0.03 MB

     Dynamical RAM for     wfc (w. buffer):       0.29 MB

     Dynamical RAM for           str. fact:       0.09 MB

     Dynamical RAM for           local pot:       0.00 MB

     Dynamical RAM for          nlocal pot:       0.04 MB

     Dynamical RAM for                qrad:       2.64 MB

     Dynamical RAM for          rho,v,vnew:       0.67 MB

     Dynamical RAM for               rhoin:       0.22 MB

     Dynamical RAM for            rho*nmix:       1.45 MB

     Dynamical RAM for           G-vectors:       0.35 MB

     Dynamical RAM for          h,s,v(r/c):       0.03 MB

     Dynamical RAM for          <psi|beta>:       0.00 MB

     Dynamical RAM for                 psi:       0.05 MB

     Dynamical RAM for                hpsi:       0.05 MB

     Dynamical RAM for                spsi:       0.05 MB

     Dynamical RAM for      wfcinit/wfcrot:       0.06 MB

     Dynamical RAM for           addusdens:       1.14 MB

     Dynamical RAM for          addusforce:       1.11 MB

     Dynamical RAM for         addusstress:       1.18 MB

     Estimated static dynamical RAM per process >       5.15 MB

     Estimated max dynamical RAM per process >       7.78 MB

     Estimated total dynamical RAM >     821.82 MB

     Initial potential from superposition of free atoms

     starting charge      15.9996, renormalised to      16.0000
     Starting wfcs are   10 randomized atomic wfcs +    2 random wfcs
     Checking if some PAW data can be deallocated... 

     total cpu time spent up to now is        1.2 secs

     per-process dynamical memory:   185.9 Mb

     Self-consistent Calculation

     iteration #  1     ecut=    90.00 Ry     beta= 0.20
     Davidson diagonalization with overlap

---- Real-time Memory Report at c_bands before calling an iterative solver
           754 MiB given to the printing process from OS
           181 MiB allocation reported by mallinfo(arena+hblkhd)
        467978 MiB available memory on the node where the printing process lives
------------------
     ethr =  1.00E-02,  avg # of iterations =  3.3

     Threshold (ethr) on eigenvalues was too large:
     Diagonalizing with lowered threshold

     Davidson diagonalization with overlap

---- Real-time Memory Report at c_bands before calling an iterative solver
           754 MiB given to the printing process from OS
           181 MiB allocation reported by mallinfo(arena+hblkhd)
        467971 MiB available memory on the node where the printing process lives
------------------
     ethr =  2.10E-04,  avg # of iterations =  1.6

     total cpu time spent up to now is        1.6 secs

     total energy              =    -329.22344505 Ry
     estimated scf accuracy    <       0.03564464 Ry

     iteration #  2     ecut=    90.00 Ry     beta= 0.20
     Davidson diagonalization with overlap

---- Real-time Memory Report at c_bands before calling an iterative solver
           760 MiB given to the printing process from OS
           182 MiB allocation reported by mallinfo(arena+hblkhd)
        467886 MiB available memory on the node where the printing process lives
------------------
     ethr =  2.23E-04,  avg # of iterations =  1.3

     total cpu time spent up to now is        1.8 secs

     total energy              =    -329.22654849 Ry
     estimated scf accuracy    <       0.00239259 Ry

     iteration #  3     ecut=    90.00 Ry     beta= 0.20
     Davidson diagonalization with overlap

---- Real-time Memory Report at c_bands before calling an iterative solver
           760 MiB given to the printing process from OS
           182 MiB allocation reported by mallinfo(arena+hblkhd)
        467882 MiB available memory on the node where the printing process lives
------------------
     ethr =  1.50E-05,  avg # of iterations =  2.5

     total cpu time spent up to now is        2.0 secs

     total energy              =    -329.22693444 Ry
     estimated scf accuracy    <       0.00055176 Ry

     iteration #  4     ecut=    90.00 Ry     beta= 0.20
     Davidson diagonalization with overlap

---- Real-time Memory Report at c_bands before calling an iterative solver
           760 MiB given to the printing process from OS
           182 MiB allocation reported by mallinfo(arena+hblkhd)
        467883 MiB available memory on the node where the printing process lives
------------------
     ethr =  3.45E-06,  avg # of iterations =  2.2

     total cpu time spent up to now is        2.2 secs

     total energy              =    -329.22691908 Ry
     estimated scf accuracy    <       0.00038008 Ry

     iteration #  5     ecut=    90.00 Ry     beta= 0.20
     Davidson diagonalization with overlap

---- Real-time Memory Report at c_bands before calling an iterative solver
           760 MiB given to the printing process from OS
           182 MiB allocation reported by mallinfo(arena+hblkhd)
        467882 MiB available memory on the node where the printing process lives
------------------
     ethr =  2.38E-06,  avg # of iterations =  1.5

     total cpu time spent up to now is        2.4 secs

     total energy              =    -329.22697174 Ry
     estimated scf accuracy    <       0.00000061 Ry

     iteration #  6     ecut=    90.00 Ry     beta= 0.20
     Davidson diagonalization with overlap

---- Real-time Memory Report at c_bands before calling an iterative solver
           760 MiB given to the printing process from OS
           182 MiB allocation reported by mallinfo(arena+hblkhd)
        467881 MiB available memory on the node where the printing process lives
------------------
     ethr =  3.81E-09,  avg # of iterations =  3.5

     total cpu time spent up to now is        2.6 secs

     total energy              =    -329.22697333 Ry
     estimated scf accuracy    <       0.00000263 Ry

     iteration #  7     ecut=    90.00 Ry     beta= 0.20
     Davidson diagonalization with overlap

---- Real-time Memory Report at c_bands before calling an iterative solver
           760 MiB given to the printing process from OS
           182 MiB allocation reported by mallinfo(arena+hblkhd)
        467880 MiB available memory on the node where the printing process lives
------------------
     ethr =  3.81E-09,  avg # of iterations =  2.1

     total cpu time spent up to now is        2.8 secs

     total energy              =    -329.22697366 Ry
     estimated scf accuracy    <       0.00000007 Ry

     iteration #  8     ecut=    90.00 Ry     beta= 0.20
     Davidson diagonalization with overlap

---- Real-time Memory Report at c_bands before calling an iterative solver
           760 MiB given to the printing process from OS
           182 MiB allocation reported by mallinfo(arena+hblkhd)
        467880 MiB available memory on the node where the printing process lives
------------------
     ethr =  4.59E-10,  avg # of iterations =  1.2

     total cpu time spent up to now is        3.0 secs

     total energy              =    -329.22697365 Ry
     estimated scf accuracy    <       0.00000005 Ry

     iteration #  9     ecut=    90.00 Ry     beta= 0.20
     Davidson diagonalization with overlap

---- Real-time Memory Report at c_bands before calling an iterative solver
           761 MiB given to the printing process from OS
           182 MiB allocation reported by mallinfo(arena+hblkhd)
        467878 MiB available memory on the node where the printing process lives
------------------
     ethr =  3.23E-10,  avg # of iterations =  2.0

     total cpu time spent up to now is        3.2 secs

     total energy              =    -329.22697367 Ry
     estimated scf accuracy    <          7.1E-09 Ry

     iteration # 10     ecut=    90.00 Ry     beta= 0.20
     Davidson diagonalization with overlap

---- Real-time Memory Report at c_bands before calling an iterative solver
           761 MiB given to the printing process from OS
           182 MiB allocation reported by mallinfo(arena+hblkhd)
        467878 MiB available memory on the node where the printing process lives
------------------
     ethr =  4.44E-11,  avg # of iterations =  1.2

     total cpu time spent up to now is        3.4 secs

     total energy              =    -329.22697367 Ry
     estimated scf accuracy    <       0.00000001 Ry

     iteration # 11     ecut=    90.00 Ry     beta= 0.20
     Davidson diagonalization with overlap

---- Real-time Memory Report at c_bands before calling an iterative solver
           761 MiB given to the printing process from OS
           182 MiB allocation reported by mallinfo(arena+hblkhd)
        467879 MiB available memory on the node where the printing process lives
------------------
     ethr =  4.44E-11,  avg # of iterations =  1.2

     total cpu time spent up to now is        3.6 secs

     total energy              =    -329.22697367 Ry
     estimated scf accuracy    <          4.3E-10 Ry

     iteration # 12     ecut=    90.00 Ry     beta= 0.20
     Davidson diagonalization with overlap

---- Real-time Memory Report at c_bands before calling an iterative solver
           761 MiB given to the printing process from OS
           182 MiB allocation reported by mallinfo(arena+hblkhd)
        467883 MiB available memory on the node where the printing process lives
------------------
     ethr =  2.69E-12,  avg # of iterations =  2.0

     total cpu time spent up to now is        3.8 secs

     End of self-consistent calculation

          k = 0.0000 0.0000 0.0000 (  1157 PWs)   bands (ev):

   -69.5459 -35.3828 -35.3828 -35.3828   9.2111  16.0140  16.0140  16.0140
    17.5124  17.5124  41.5283  41.5283

     occupation numbers 
     1.0000   1.0000   1.0000   1.0000   1.0000   1.0000   1.0000   1.0000
     0.6140   0.6140   0.0000   0.0000

          k = 0.0000-0.0625 0.0625 (  1145 PWs)   bands (ev):

   -69.5432 -35.3974 -35.3877 -35.3828   9.3692  15.9686  16.0087  16.0998
    17.4653  17.5160  40.6004  41.3319

     occupation numbers 
     1.0000   1.0000   1.0000   1.0000   1.0000   1.0000   1.0000   1.0000
     0.8578   0.5938   0.0000   0.0000

          k = 0.0000-0.1250 0.1250 (  1141 PWs)   bands (ev):

   -69.5357 -35.4389 -35.4015 -35.3828   9.8326  15.8408  15.9775  16.3492
    17.3593  17.5277  38.4581  40.5952

     occupation numbers 
     1.0000   1.0000   1.0000   1.0000   1.0000   1.0000   1.0000   1.0000
     1.0833   0.5293   0.0000   0.0000

          k = 0.0000-0.1875 0.1875 (  1139 PWs)   bands (ev):

   -69.5245 -35.5007 -35.4222 -35.3827  10.5636  15.6538  15.8970  16.7383
    17.2780  17.5502  35.8065  39.3852

     occupation numbers 
     1.0000   1.0000   1.0000   1.0000   1.0000   1.0000   1.0000   1.0000
     1.0400   0.4102   0.0000   0.0000

          k = 0.0000-0.2500 0.2500 (  1134 PWs)   bands (ev):

   -69.5112 -35.5731 -35.4465 -35.3826  11.4756  15.4395  15.8137  17.2257
    17.2791  17.5843  33.0059  38.0747

     occupation numbers 
     1.0000   1.0000   1.0000   1.0000   1.0000   1.0000   1.0000   1.0144
     1.0407   0.2546   0.0000   0.0000

          k = 0.0000-0.3125 0.3125 (  1144 PWs)   bands (ev):

   -69.4979 -35.6449 -35.4708 -35.3826  12.3790  15.2314  15.9217  17.3485
    17.6271  17.7498  30.2677  36.9097

     occupation numbers 
     1.0000   1.0000   1.0000   1.0000   1.0000   1.0000   1.0000   1.0818
     0.1195   0.0049   0.0000   0.0000

          k = 0.0000-0.3750 0.3750 (  1148 PWs)   bands (ev):

   -69.4867 -35.7055 -35.4913 -35.3825  12.9799  15.0598  16.4848  17.4437
    17.6704  18.2289  27.7732  36.0118

     occupation numbers 
     1.0000   1.0000   1.0000   1.0000   1.0000   1.0000   1.0000   0.9460
     0.0460   0.0000   0.0000   0.0000

          k = 0.0000-0.4375 0.4375 (  1148 PWs)   bands (ev):

   -69.4791 -35.7457 -35.5049 -35.3825  13.2055  14.9473  17.3174  17.5905
    17.7033  18.5706  25.8105  35.4480

     occupation numbers 
     1.0000   1.0000   1.0000   1.0000   1.0000   1.0000   1.0666   0.2305
     0.0197   0.0000   0.0000   0.0000

          k = 0.0000 0.5000-0.5000 (  1148 PWs)   bands (ev):

   -69.4765 -35.7598 -35.5097 -35.3825  13.2493  14.9083  17.4814  17.7156
    17.9523  18.6953  24.9859  35.2560

     occupation numbers 
     1.0000   1.0000   1.0000   1.0000   1.0000   1.0000   0.7802   0.0139
     0.0000   0.0000   0.0000   0.0000

          k =-0.0625-0.0625 0.1250 (  1139 PWs)   bands (ev):

   -69.5382 -35.4262 -35.3927 -35.3864   9.6802  15.9091  15.9521  16.2793
    17.3818  17.5299  39.3473  40.2309

     occupation numbers 
     1.0000   1.0000   1.0000   1.0000   1.0000   1.0000   1.0000   1.0000
     1.0760   0.5172   0.0000   0.0000

          k =-0.0625-0.1250 0.1875 (  1146 PWs)   bands (ev):

   -69.5288 -35.4772 -35.4091 -35.3879  10.2795  15.7560  15.8791  16.6123
    17.2733  17.5600  37.1509  38.9540

     occupation numbers 
     1.0000   1.0000   1.0000   1.0000   1.0000   1.0000   1.0000   1.0000
     1.0371   0.3616   0.0000   0.0000

          k =-0.0625-0.1875 0.2500 (  1141 PWs)   bands (ev):

   -69.5166 -35.5425 -35.4330 -35.3881  11.1103  15.5511  15.7754  17.0663
    17.2272  17.6007  34.4614  37.7410

     occupation numbers 
     1.0000   1.0000   1.0000   1.0000   1.0000   1.0000   1.0000   1.0001
     1.0149   0.1946   0.0000   0.0000

          k =-0.0625-0.2500 0.3125 (  1136 PWs)   bands (ev):

   -69.5033 -35.6125 -35.4592 -35.3882  12.0454  15.3369  15.7326  17.2640
    17.5911  17.6626  31.6845  36.6247

     occupation numbers 
     1.0000   1.0000   1.0000   1.0000   1.0000   1.0000   1.0000   1.0316
     0.2285   0.0555   0.0000   0.0000

          k =-0.0625-0.3125 0.3750 (  1140 PWs)   bands (ev):

   -69.4910 -35.6766 -35.4835 -35.3883  12.8272  15.1467  15.9833  17.3610
    17.6992  18.1703  29.0397  35.6917

     occupation numbers 
     1.0000   1.0000   1.0000   1.0000   1.0000   1.0000   1.0000   1.0833
     0.0220   0.0000   0.0000   0.0000

          k =-0.0625-0.3750 0.4375 (  1145 PWs)   bands (ev):

   -69.4816 -35.7254 -35.5021 -35.3883  13.2162  15.0058  16.6119  17.4534
    17.8019  18.7077  26.7439  35.0201

     occupation numbers 
     1.0000   1.0000   1.0000   1.0000   1.0000   1.0000   1.0000   0.9090
     0.0008   0.0000   0.0000   0.0000

          k =-0.0625 0.5625-0.5000 (  1144 PWs)   bands (ev):

   -69.4765 -35.7516 -35.5122 -35.3883  13.3217  14.9311  17.1225  17.4741
    17.9872  19.1586  25.2229  34.6680

     occupation numbers 
     1.0000   1.0000   1.0000   1.0000   1.0000   1.0000   1.0007   0.8168
     0.0000   0.0000   0.0000   0.0000

          k =-0.1250-0.1250 0.2500 (  1146 PWs)   bands (ev):

   -69.5184 -35.5311 -35.4228 -35.3961  10.9850  15.6422  15.6972  17.0370
    17.1858  17.6219  35.6062  36.7291

     occupation numbers 
     1.0000   1.0000   1.0000   1.0000   1.0000   1.0000   1.0000   1.0000
     1.0053   0.1322   0.0000   0.0000

          k =-0.1250-0.1875 0.3125 (  1140 PWs)   bands (ev):

   -69.5062 -35.5914 -35.4479 -35.3999  11.8681  15.4441  15.5627  17.1724
    17.5538  17.7171  33.2210  35.2000

     occupation numbers 
     1.0000   1.0000   1.0000   1.0000   1.0000   1.0000   1.0000   1.0036
     0.3917   0.0133   0.0000   0.0000

          k =-0.1250-0.2500 0.3750 (  1145 PWs)   bands (ev):

   -69.4939 -35.6497 -35.4768 -35.4014  12.7495  15.2347  15.5703  17.2433
    17.7204  18.2520  30.5298  34.1637

     occupation numbers 
     1.0000   1.0000   1.0000   1.0000   1.0000   1.0000   1.0000   1.0212
     0.0121   0.0000   0.0000   0.0000

          k =-0.1250-0.3125 0.4375 (  1144 PWs)   bands (ev):

   -69.4834 -35.6980 -35.5026 -35.4021  13.3310  15.0786  15.8730  17.3559
    17.7971  18.9749  28.0055  33.3880

     occupation numbers 
     1.0000   1.0000   1.0000   1.0000   1.0000   1.0000   1.0000   1.0831
     0.0009   0.0000   0.0000   0.0000

          k =-0.1250 0.6250-0.5000 (  1150 PWs)   bands (ev):

   -69.4765 -35.7299 -35.5203 -35.4025  13.5293  14.9832  16.3309  17.4322
    17.9197  19.7655  25.9506  32.8918

     occupation numbers 
     1.0000   1.0000   1.0000   1.0000   1.0000   1.0000   1.0000   0.9842
     0.0000   0.0000   0.0000   0.0000

          k =-0.1250 0.5625-0.4375 (  1145 PWs)   bands (ev):

   -69.4740 -35.7410 -35.5265 -35.4025  13.5611  14.9508  16.5304  17.4474
    17.9996  20.2266  25.0343  32.7195

     occupation numbers 
     1.0000   1.0000   1.0000   1.0000   1.0000   1.0000   1.0000   0.9326
     0.0000   0.0000   0.0000   0.0000

          k =-0.1875-0.1875 0.3750 (  1140 PWs)   bands (ev):

   -69.4949 -35.6384 -35.4732 -35.4091  12.7273  15.2683  15.4256  17.1866
    17.7256  18.2959  31.8945  32.6920

     occupation numbers 
     1.0000   1.0000   1.0000   1.0000   1.0000   1.0000   1.0000   1.0054
     0.0104   0.0000   0.0000   0.0000

          k =-0.1875-0.2500 0.4375 (  1145 PWs)   bands (ev):

   -69.4845 -35.6770 -35.5048 -35.4139  13.4661  15.0884  15.4620  17.2709
    17.7854  19.1329  29.5396  31.4909

     occupation numbers 
     1.0000   1.0000   1.0000   1.0000   1.0000   1.0000   1.0000   1.0356
     0.0014   0.0000   0.0000   0.0000

          k =-0.1875 0.6875-0.5000 (  1148 PWs)   bands (ev):

   -69.4765 -35.7037 -35.5331 -35.4162  13.8261  15.0041  15.6940  17.3822
    17.8479  20.1495  27.1594  30.8313

     occupation numbers 
     1.0000   1.0000   1.0000   1.0000   1.0000   1.0000   1.0000   1.0756
     0.0001   0.0000   0.0000   0.0000

          k =-0.1875 0.6250-0.4375 (  1146 PWs)   bands (ev):

   -69.4722 -35.7170 -35.5498 -35.4172  13.8995  14.9743  15.9271  17.4478
    17.9174  21.1583  25.4054  30.4902

     occupation numbers 
     1.0000   1.0000   1.0000   1.0000   1.0000   1.0000   1.0000   0.9311
     0.0000   0.0000   0.0000   0.0000

          k =-0.2500 0.7500-0.5000 (  1157 PWs)   bands (ev):

   -69.4765 -35.6907 -35.5410 -35.4217  14.0163  14.9488  15.4564  17.3580
    17.8197  20.2748  28.4664  29.2252

     occupation numbers 
     1.0000   1.0000   1.0000   1.0000   1.0000   1.0000   1.0000   1.0833
     0.0004   0.0000   0.0000   0.0000

          k =-0.2500 0.6875-0.4375 (  1152 PWs)   bands (ev):

   -69.4712 -35.6918 -35.5743 -35.4255  14.2494  14.9395  15.4918  17.4699
    17.8323  21.6385  26.4426  28.4795

     occupation numbers 
     1.0000   1.0000   1.0000   1.0000   1.0000   1.0000   1.0000   0.8369
     0.0002   0.0000   0.0000   0.0000

          k =-0.2500 0.6250-0.3750 (  1152 PWs)   bands (ev):

   -69.4693 -35.6895 -35.5890 -35.4266  14.2815  14.9721  15.5115  17.5234
    17.8349  22.6002  25.1854  28.2911

     occupation numbers 
     1.0000   1.0000   1.0000   1.0000   1.0000   1.0000   1.0000   0.5531
     0.0002   0.0000   0.0000   0.0000

          k =-0.3125 0.6875-0.3750 (  1158 PWs)   bands (ev):

   -69.4683 -35.6653 -35.6176 -35.4296  14.4993  14.9903  15.2615  17.5997
    17.7554  23.3399  25.3621  27.0432

     occupation numbers 
     1.0000   1.0000   1.0000   1.0000   1.0000   1.0000   1.0000   0.1979
     0.0041   0.0000   0.0000   0.0000

          k = 0.0000 0.0000 0.1250 (  1133 PWs)   bands (ev):

   -69.5406 -35.4019 -35.3926 -35.3926   9.5258  16.0090  16.0090  16.1015
    17.3601  17.5711  39.9790  41.2558

     occupation numbers 
     1.0000   1.0000   1.0000   1.0000   1.0000   1.0000   1.0000   1.0000
     1.0833   0.3103   0.0000   0.0000

          k = 0.0000-0.0625 0.1875 (  1137 PWs)   bands (ev):

   -69.5332 -35.4400 -35.4065 -35.3950   9.9847  15.9106  15.9926  16.3262
    17.1982  17.6213  38.3417  40.3643

     occupation numbers 
     1.0000   1.0000   1.0000   1.0000   1.0000   1.0000   1.0000   1.0000
     1.0074   0.1338   0.0000   0.0000

          k = 0.0000-0.1250 0.2500 (  1141 PWs)   bands (ev):

   -69.5221 -35.5007 -35.4273 -35.3948  10.7075  15.7315  15.9202  16.7145
    17.0818  17.6677  35.8828  39.0325

     occupation numbers 
     1.0000   1.0000   1.0000   1.0000   1.0000   1.0000   1.0000   1.0000
     1.0002   0.0491   0.0000   0.0000

          k = 0.0000-0.1875 0.3125 (  1138 PWs)   bands (ev):

   -69.5089 -35.5719 -35.4517 -35.3943  11.6077  15.5239  15.8103  17.0900
    17.2039  17.7204  33.1151  37.7731

     occupation numbers 
     1.0000   1.0000   1.0000   1.0000   1.0000   1.0000   1.0000   1.0002
     1.0085   0.0121   0.0000   0.0000

          k = 0.0000-0.2500 0.3750 (  1140 PWs)   bands (ev):

   -69.4958 -35.6427 -35.4761 -35.3938  12.4986  15.3217  15.8329  17.2094
    17.7312  17.8014  30.3735  36.6897

     occupation numbers 
     1.0000   1.0000   1.0000   1.0000   1.0000   1.0000   1.0000   1.0098
     0.0087   0.0008   0.0000   0.0000

          k = 0.0000-0.3125 0.4375 (  1146 PWs)   bands (ev):

   -69.4846 -35.7023 -35.4967 -35.3934  13.0910  15.1545  16.1832  17.3529
    18.0198  18.2141  27.8604  35.8575

     occupation numbers 
     1.0000   1.0000   1.0000   1.0000   1.0000   1.0000   1.0000   1.0827
     0.0000   0.0000   0.0000   0.0000

          k = 0.0000-0.3750 0.5000 (  1145 PWs)   bands (ev):

   -69.4771 -35.7419 -35.5105 -35.3931  13.3103  15.0449  16.6507  17.4010
    18.5492  18.5590  25.8590  35.3343

     occupation numbers 
     1.0000   1.0000   1.0000   1.0000   1.0000   1.0000   1.0000   1.0548
     0.0000   0.0000   0.0000   0.0000

          k = 0.0000 0.5625-0.4375 (  1148 PWs)   bands (ev):

   -69.4745 -35.7558 -35.5153 -35.3930  13.3513  15.0067  16.8411  17.3900
    18.6849  18.9397  25.0008  35.1559

     occupation numbers 
     1.0000   1.0000   1.0000   1.0000   1.0000   1.0000   1.0000   1.0688
     0.0000   0.0000   0.0000   0.0000

          k =-0.0625-0.0625 0.2500 (  1143 PWs)   bands (ev):

   -69.5240 -35.4822 -35.4212 -35.4051  10.5701  15.8623  15.9215  16.5927
    17.0100  17.6979  36.9065  38.4156

     occupation numbers 
     1.0000   1.0000   1.0000   1.0000   1.0000   1.0000   1.0000   1.0000
     1.0000   0.0228   0.0000   0.0000

          k =-0.0625-0.1250 0.3125 (  1142 PWs)   bands (ev):

   -69.5120 -35.5432 -35.4443 -35.4078  11.3786  15.6976  15.8039  16.9274
    17.0345  17.7740  34.6284  36.7318

     occupation numbers 
     1.0000   1.0000   1.0000   1.0000   1.0000   1.0000   1.0000   1.0000
     1.0000   0.0022   0.0000   0.0000

          k =-0.0625-0.1875 0.3750 (  1141 PWs)   bands (ev):

   -69.4990 -35.6100 -35.4707 -35.4080  12.2846  15.4860  15.6975  17.0046
    17.5424  17.8951  31.8987  35.5721

     occupation numbers 
     1.0000   1.0000   1.0000   1.0000   1.0000   1.0000   1.0000   1.0000
     0.4504   0.0000   0.0000   0.0000

          k =-0.0625-0.2500 0.4375 (  1144 PWs)   bands (ev):

   -69.4869 -35.6717 -35.4954 -35.4076  13.0432  15.3054  15.7555  17.1734
    17.8765  18.3163  29.2370  34.6621

     occupation numbers 
     1.0000   1.0000   1.0000   1.0000   1.0000   1.0000   1.0000   1.0037
     0.0000   0.0000   0.0000   0.0000

          k =-0.0625-0.3125 0.5000 (  1143 PWs)   bands (ev):

   -69.4777 -35.7187 -35.5142 -35.4072  13.4199  15.1801  16.0476  17.2929
    18.1630  19.0142  26.8894  34.0032

     occupation numbers 
     1.0000   1.0000   1.0000   1.0000   1.0000   1.0000   1.0000   1.0499
     0.0000   0.0000   0.0000   0.0000

          k =-0.0625 0.6250-0.4375 (  1145 PWs)   bands (ev):

   -69.4727 -35.7440 -35.5245 -35.4069  13.5166  15.1142  16.3064  17.3109
    18.4102  19.7394  25.2787  33.6510

     occupation numbers 
     1.0000   1.0000   1.0000   1.0000   1.0000   1.0000   1.0000   1.0623
     0.0000   0.0000   0.0000   0.0000

          k =-0.1250 0.1250 0.1250 (  1142 PWs)   bands (ev):

   -69.5312 -35.4709 -35.3931 -35.3931  10.1331  15.8007  15.8007  16.6039
    17.4353  17.4353  38.2630  38.2630

     occupation numbers 
     1.0000   1.0000   1.0000   1.0000   1.0000   1.0000   1.0000   1.0000
     0.9746   0.9746   0.0000   0.0000

          k =-0.1250-0.1250 0.3750 (  1134 PWs)   bands (ev):

   -69.5001 -35.5956 -35.4680 -35.4168  12.2104  15.5332  15.6770  16.8970
    17.4953  17.9339  33.2378  34.1433

     occupation numbers 
     1.0000   1.0000   1.0000   1.0000   1.0000   1.0000   1.0000   1.0000
     0.7075   0.0000   0.0000   0.0000

          k =-0.1250-0.1875 0.4375 (  1139 PWs)   bands (ev):

   -69.4882 -35.6477 -35.4972 -35.4203  13.0382  15.2968  15.6335  17.0016
    17.7802  18.4385  30.8254  32.7892

     occupation numbers 
     1.0000   1.0000   1.0000   1.0000   1.0000   1.0000   1.0000   1.0000
     0.0017   0.0000   0.0000   0.0000

          k =-0.1250-0.2500 0.5000 (  1143 PWs)   bands (ev):

   -69.4781 -35.6912 -35.5241 -35.4214  13.6015  15.1835  15.6605  17.1674
    17.9393  19.2962  28.2758  31.9844

     occupation numbers 
     1.0000   1.0000   1.0000   1.0000   1.0000   1.0000   1.0000   1.0031
     0.0000   0.0000   0.0000   0.0000

          k =-0.1250 0.6875-0.4375 (  1152 PWs)   bands (ev):

   -69.4713 -35.7201 -35.5427 -35.4216  13.7958  15.1698  15.7802  17.2668
    18.1312  20.3411  26.1221  31.4750

     occupation numbers 
     1.0000   1.0000   1.0000   1.0000   1.0000   1.0000   1.0000   1.0332
     0.0000   0.0000   0.0000   0.0000

          k =-0.1250 0.6250-0.3750 (  1154 PWs)   bands (ev):

   -69.4690 -35.7301 -35.5493 -35.4216  13.8228  15.1684  15.8512  17.2879
    18.2286  20.9887  25.0938  31.2973

     occupation numbers 
     1.0000   1.0000   1.0000   1.0000   1.0000   1.0000   1.0000   1.0465
     0.0000   0.0000   0.0000   0.0000

          k =-0.1875 0.1875 0.1250 (  1145 PWs)   bands (ev):

   -69.5207 -35.5279 -35.4126 -35.3937  10.8493  15.5953  15.6758  17.0475
    17.3546  17.5007  35.8420  37.1232

     occupation numbers 
     1.0000   1.0000   1.0000   1.0000   1.0000   1.0000   1.0000   1.0000
     1.0830   0.6783   0.0000   0.0000

          k =-0.1875-0.1875 0.5000 (  1143 PWs)   bands (ev):

   -69.4782 -35.6776 -35.5309 -35.4269  13.7098  15.0559  15.6251  17.1038
    17.8680  19.3895  29.6910  30.3382

     occupation numbers 
     1.0000   1.0000   1.0000   1.0000   1.0000   1.0000   1.0000   1.0004
     0.0001   0.0000   0.0000   0.0000

          k =-0.1875 0.7500-0.4375 (  1147 PWs)   bands (ev):

   -69.4706 -35.6964 -35.5630 -35.4298  14.1095  14.9790  15.5675  17.2649
    17.9450  20.6267  27.4697  29.4442

     occupation numbers 
     1.0000   1.0000   1.0000   1.0000   1.0000   1.0000   1.0000   1.0321
     0.0000   0.0000   0.0000   0.0000

          k =-0.1875 0.6875-0.3750 (  1153 PWs)   bands (ev):

   -69.4665 -35.7046 -35.5828 -35.4308  14.2024  15.1019  15.4617  17.3678
    18.0194  21.9217  25.5553  29.0824

     occupation numbers 
     1.0000   1.0000   1.0000   1.0000   1.0000   1.0000   1.0000   1.0824
     0.0000   0.0000   0.0000   0.0000

          k =-0.2500 0.2500 0.1250 (  1138 PWs)   bands (ev):

   -69.5083 -35.5905 -35.4398 -35.3944  11.7479  15.3754  15.5573  17.3382
    17.5659  17.5941  33.1451  36.0427

     occupation numbers 
     1.0000   1.0000   1.0000   1.0000   1.0000   1.0000   1.0000   1.0782
     0.3338   0.2175   0.0000   0.0000

          k =-0.2500 0.1875 0.1875 (  1138 PWs)   bands (ev):

   -69.5100 -35.5827 -35.4253 -35.4044  11.6445  15.4270  15.4497  17.3620
    17.5411  17.6040  34.3728  35.1125

     occupation numbers 
     1.0000   1.0000   1.0000   1.0000   1.0000   1.0000   1.0000   1.0832
     0.4571   0.1836   0.0000   0.0000

          k =-0.2500 0.7500-0.3750 (  1148 PWs)   bands (ev):

   -69.4656 -35.6869 -35.6037 -35.4337  14.5049  14.8637  15.3670  17.4505
    17.8946  22.2290  26.4374  27.6144

     occupation numbers 
     1.0000   1.0000   1.0000   1.0000   1.0000   1.0000   1.0000   0.9204
     0.0000   0.0000   0.0000   0.0000

          k =-0.2500 0.6875-0.3125 (  1153 PWs)   bands (ev):

   -69.4638 -35.6750 -35.6268 -35.4348  14.6122  15.0137  15.1238  17.5704
    17.8384  23.5253  25.1069  27.2187

     occupation numbers 
     1.0000   1.0000   1.0000   1.0000   1.0000   1.0000   1.0000   0.3134
     0.0002   0.0000   0.0000   0.0000

          k =-0.3125 0.3125 0.1250 (  1139 PWs)   bands (ev):

   -69.4959 -35.6507 -35.4690 -35.3951  12.6447  15.1723  15.5947  17.3844
    17.6255  18.2127  30.4292  35.1031

     occupation numbers 
     1.0000   1.0000   1.0000   1.0000   1.0000   1.0000   1.0000   1.0740
     0.1231   0.0000   0.0000   0.0000

          k =-0.3125 0.2500 0.1875 (  1136 PWs)   bands (ev):

   -69.4985 -35.6346 -35.4532 -35.4089  12.5526  15.2181  15.3266  17.3781
    17.6187  18.2627  31.9741  33.8321

     occupation numbers 
     1.0000   1.0000   1.0000   1.0000   1.0000   1.0000   1.0000   1.0783
     0.1404   0.0000   0.0000   0.0000

          k =-0.3750 0.3750 0.1250 (  1148 PWs)   bands (ev):

   -69.4853 -35.7005 -35.4946 -35.3957  13.2319  15.0101  16.0151  17.4537
    17.6752  18.8812  27.9170  34.3742

     occupation numbers 
     1.0000   1.0000   1.0000   1.0000   1.0000   1.0000   1.0000   0.9079
     0.0410   0.0000   0.0000   0.0000

          k =-0.3750 0.3125 0.1875 (  1144 PWs)   bands (ev):

   -69.4878 -35.6778 -35.4854 -35.4111  13.3205  15.0399  15.4371  17.4346
    17.6806  19.0264  29.3625  32.9648

     occupation numbers 
     1.0000   1.0000   1.0000   1.0000   1.0000   1.0000   1.0000   0.9766
     0.0358   0.0000   0.0000   0.0000

          k =-0.3750 0.2500 0.2500 (  1137 PWs)   bands (ev):

   -69.4887 -35.6684 -35.4794 -35.4206  13.3786  15.0643  15.1969  17.4158
    17.6900  19.0821  30.7481  31.4665

     occupation numbers 
     1.0000   1.0000   1.0000   1.0000   1.0000   1.0000   1.0000   1.0273
     0.0281   0.0000   0.0000   0.0000

          k = 0.5625-0.5625 0.1250 (  1146 PWs)   bands (ev):

   -69.4783 -35.7334 -35.5120 -35.3961  13.4323  14.9059  16.6643  17.5057
    17.7091  19.5693  25.8981  33.9122

     occupation numbers 
     1.0000   1.0000   1.0000   1.0000   1.0000   1.0000   1.0000   0.6508
     0.0167   0.0000   0.0000   0.0000

          k = 0.5625-0.6250 0.1875 (  1147 PWs)   bands (ev):

   -69.4797 -35.7083 -35.5128 -35.4125  13.6664  14.9185  15.8951  17.5018
    17.7264  19.9022  27.0067  32.3600

     occupation numbers 
     1.0000   1.0000   1.0000   1.0000   1.0000   1.0000   1.0000   0.6724
     0.0101   0.0000   0.0000   0.0000

          k = 0.5625-0.6875 0.2500 (  1147 PWs)   bands (ev):

   -69.4804 -35.6890 -35.5134 -35.4268  13.9327  14.9383  15.3336  17.4812
    17.7387  20.0795  28.4767  30.4370

     occupation numbers 
     1.0000   1.0000   1.0000   1.0000   1.0000   1.0000   1.0000   0.7817
     0.0069   0.0000   0.0000   0.0000

          k = 0.5000-0.5000 0.1250 (  1146 PWs)   bands (ev):

   -69.4758 -35.7448 -35.5181 -35.3962  13.4655  14.8700  16.9745  17.5193
    17.7211  19.9566  25.0181  33.7540

     occupation numbers 
     1.0000   1.0000   1.0000   1.0000   1.0000   1.0000   1.0000   0.5756
     0.0118   0.0000   0.0000   0.0000

          k = 0.5000-0.5625 0.1875 (  1154 PWs)   bands (ev):

   -69.4752 -35.7239 -35.5284 -35.4132  13.7327  14.8567  16.3192  17.5428
    17.7584  20.7347  25.3429  32.0438

     occupation numbers 
     1.0000   1.0000   1.0000   1.0000   1.0000   1.0000   1.0000   0.4485
     0.0037   0.0000   0.0000   0.0000

          k = 0.5000-0.6250 0.2500 (  1158 PWs)   bands (ev):

   -69.4749 -35.6975 -35.5425 -35.4298  14.0777  14.8740  15.6819  17.5492
    17.7662  21.2362  26.2982  29.9410

     occupation numbers 
     1.0000   1.0000   1.0000   1.0000   1.0000   1.0000   1.0000   0.4150
     0.0028   0.0000   0.0000   0.0000

          k = 0.5000-0.6875 0.3125 (  1157 PWs)   bands (ev):

   -69.4747 -35.6840 -35.5510 -35.4365  14.2946  14.9020  15.3444  17.5498
    17.7622  21.3940  27.4716  28.3740

     occupation numbers 
     1.0000   1.0000   1.0000   1.0000   1.0000   1.0000   1.0000   0.4122
     0.0032   0.0000   0.0000   0.0000

          k = 0.4375-0.5625 0.2500 (  1156 PWs)   bands (ev):

   -69.4729 -35.6991 -35.5542 -35.4307  14.0858  14.8542  15.8517  17.5785
    17.7767  21.9919  25.1795  29.7738

     occupation numbers 
     1.0000   1.0000   1.0000   1.0000   1.0000   1.0000   1.0000   0.2783
     0.0020   0.0000   0.0000   0.0000

          k = 0.4375-0.6250 0.3125 (  1160 PWs)   bands (ev):

   -69.4717 -35.6697 -35.5838 -35.4407  14.3819  14.9246  15.4207  17.6171
    17.7536  22.8387  25.6852  27.7941

[...]
     0.9466   0.0000   0.0000   0.0000

          k =-0.0625-0.1250 0.5625 (  1151 PWs)   bands (ev):

   -69.4697 -35.6528 -35.5441 -35.4891  13.7877  15.0586  16.1262  16.8079
    17.8568  19.3390  30.1904  32.0582

     occupation numbers 
     1.0000   1.0000   1.0000   1.0000   1.0000   1.0000   1.0000   1.0000
     0.0001   0.0000   0.0000   0.0000

          k =-0.0625-0.1875 0.6250 (  1150 PWs)   bands (ev):

   -69.4613 -35.6906 -35.5648 -35.4877  14.0765  14.8983  16.0094  16.9833
    18.2306  20.5668  27.6741  31.3259

     occupation numbers 
     1.0000   1.0000   1.0000   1.0000   1.0000   1.0000   1.0000   1.0000
     0.0000   0.0000   0.0000   0.0000

          k =-0.0625 0.7500-0.3125 (  1156 PWs)   bands (ev):

   -69.4567 -35.7116 -35.5759 -35.4864  14.1230  14.9211  15.9240  17.0415
    18.4686  21.9406  25.6748  30.9265

     occupation numbers 
     1.0000   1.0000   1.0000   1.0000   1.0000   1.0000   1.0000   1.0000
     0.0000   0.0000   0.0000   0.0000

          k =-0.1250-0.1250 0.6250 (  1158 PWs)   bands (ev):

   -69.4607 -35.6754 -35.5781 -35.4931  14.1666  14.7523  16.0678  17.0832
    18.0516  20.5602  29.1514  29.6460

     occupation numbers 
     1.0000   1.0000   1.0000   1.0000   1.0000   1.0000   1.0000   1.0002
     0.0000   0.0000   0.0000   0.0000

          k =-0.1250 0.8125-0.3125 (  1152 PWs)   bands (ev):

   -69.4546 -35.6897 -35.6040 -35.4932  14.3320  14.6401  15.9215  17.3226
    18.2089  22.1274  26.9438  28.9049

     occupation numbers 
     1.0000   1.0000   1.0000   1.0000   1.0000   1.0000   1.0000   1.0699
     0.0000   0.0000   0.0000   0.0000

          k =-0.1250 0.7500-0.2500 (  1157 PWs)   bands (ev):

   -69.4525 -35.6944 -35.6137 -35.4930  14.3186  14.6829  15.8470  17.4021
    18.2805  23.3321  25.4741  28.7000

     occupation numbers 
     1.0000   1.0000   1.0000   1.0000   1.0000   1.0000   1.0000   1.0531
     0.0000   0.0000   0.0000   0.0000

          k =-0.1875 0.8125-0.2500 (  1154 PWs)   bands (ev):

   -69.4510 -35.6758 -35.6407 -35.4942  14.4887  14.5097  15.7822  17.7015
    18.0669  23.9326  25.9923  27.2215

     occupation numbers 
     1.0000   1.0000   1.0000   1.0000   1.0000   1.0000   1.0000   0.0207
     0.0000   0.0000   0.0000   0.0000

          k = 0.6250-0.6250 0.3750 (  1157 PWs)   bands (ev):

   -69.4773 -35.6757 -35.4907 -35.4907  14.6879  14.8354  14.8354  17.6799
    17.6799  21.2652  29.1501  29.1501

     occupation numbers 
     1.0000   1.0000   1.0000   1.0000   1.0000   1.0000   1.0000   0.0364
     0.0364   0.0000   0.0000   0.0000

          k = 0.5625-0.5625 0.3750 (  1155 PWs)   bands (ev):

   -69.4738 -35.6557 -35.5345 -35.4942  14.6847  14.7910  15.1604  17.7012
    17.7323  22.7018  27.0460  28.7377

     occupation numbers 
     1.0000   1.0000   1.0000   1.0000   1.0000   1.0000   1.0000   0.0208
     0.0085   0.0000   0.0000   0.0000

          k = 0.5000-0.5000 0.3750 (  1154 PWs)   bands (ev):

   -69.4726 -35.6399 -35.5587 -35.4954  14.6445  14.7777  15.3163  17.7114
    17.7480  23.8498  25.6098  28.5991

     occupation numbers 
     1.0000   1.0000   1.0000   1.0000   1.0000   1.0000   1.0000   0.0157
     0.0052   0.0000   0.0000   0.0000

          k = 0.5000-0.5625 0.4375 (  1150 PWs)   bands (ev):

   -69.4723 -35.6173 -35.5651 -35.5151  14.7342  14.9156  15.0962  17.7353
    17.7470  24.3739  26.2858  27.2702

     occupation numbers 
     1.0000   1.0000   1.0000   1.0000   1.0000   1.0000   1.0000   0.0077
     0.0053   0.0000   0.0000   0.0000

          k = 0.0000 0.0000 0.5000 (  1136 PWs)   bands (ev):

   -69.4811 -35.5779 -35.5148 -35.5148  13.1622  15.5058  16.4133  16.4133
    17.1900  18.5366  34.2458  34.2458

     occupation numbers 
     1.0000   1.0000   1.0000   1.0000   1.0000   1.0000   1.0000   1.0000
     1.0059   0.0000   0.0000   0.0000

          k = 0.0000-0.0625 0.5625 (  1156 PWs)   bands (ev):

   -69.4695 -35.6186 -35.5408 -35.5259  13.6902  15.1027  16.4787  16.6679
    17.5679  19.1473  31.7852  32.9718

     occupation numbers 
     1.0000   1.0000   1.0000   1.0000   1.0000   1.0000   1.0000   1.0000
     0.3248   0.0000   0.0000   0.0000

          k = 0.0000-0.1250 0.6250 (  1153 PWs)   bands (ev):

   -69.4597 -35.6641 -35.5628 -35.5239  14.0231  14.7844  16.4291  16.8835
    18.0461  20.2145  29.1559  31.9470

     occupation numbers 
     1.0000   1.0000   1.0000   1.0000   1.0000   1.0000   1.0000   1.0000
     0.0000   0.0000   0.0000   0.0000

          k = 0.0000-0.1875 0.6875 (  1151 PWs)   bands (ev):

   -69.4531 -35.6960 -35.5774 -35.5210  14.1302  14.6544  16.3771  16.9764
    18.4190  21.6844  26.7767  31.2664

     occupation numbers 
     1.0000   1.0000   1.0000   1.0000   1.0000   1.0000   1.0000   1.0000
     0.0000   0.0000   0.0000   0.0000

          k = 0.0000 0.7500-0.2500 (  1152 PWs)   bands (ev):

   -69.4508 -35.7074 -35.5825 -35.5198  14.1265  14.6459  16.3570  16.9969
    18.5596  22.7701  25.3977  31.0254

     occupation numbers 
     1.0000   1.0000   1.0000   1.0000   1.0000   1.0000   1.0000   1.0000
     0.0000   0.0000   0.0000   0.0000

          k =-0.0625-0.0625 0.6250 (  1156 PWs)   bands (ev):

   -69.4592 -35.6459 -35.5702 -35.5375  13.9992  14.7507  16.5759  16.9451
    17.8668  20.1096  30.6475  30.9092

     occupation numbers 
     1.0000   1.0000   1.0000   1.0000   1.0000   1.0000   1.0000   1.0000
     0.0001   0.0000   0.0000   0.0000

          k =-0.0625-0.1250 0.6875 (  1151 PWs)   bands (ev):

   -69.4512 -35.6746 -35.5938 -35.5372  14.1552  14.4923  16.5286  17.2036
    18.1995  21.5191  28.2769  30.0077

     occupation numbers 
     1.0000   1.0000   1.0000   1.0000   1.0000   1.0000   1.0000   1.0084
     0.0000   0.0000   0.0000   0.0000

          k =-0.0625 0.8125-0.2500 (  1153 PWs)   bands (ev):

   -69.4469 -35.6917 -35.6062 -35.5357  14.1648  14.4139  16.4827  17.3184
    18.4263  23.1548  26.1087  29.5664

     occupation numbers 
     1.0000   1.0000   1.0000   1.0000   1.0000   1.0000   1.0000   1.0672
     0.0000   0.0000   0.0000   0.0000

          k =-0.1250 0.8750-0.2500 (  1154 PWs)   bands (ev):

   -69.4455 -35.6774 -35.6261 -35.5384  14.2233  14.2883  16.4690  17.6158
    18.2496  23.1865  27.3839  28.0029

     occupation numbers 
     1.0000   1.0000   1.0000   1.0000   1.0000   1.0000   1.0000   0.1485
     0.0000   0.0000   0.0000   0.0000

          k =-0.1250 0.8125-0.1875 (  1160 PWs)   bands (ev):

   -69.4435 -35.6751 -35.6416 -35.5382  14.1991  14.2627  16.4364  17.8042
    18.2388  24.6807  25.8483  27.6071

     occupation numbers 
     1.0000   1.0000   1.0000   1.0000   1.0000   1.0000   1.0000   0.0007
     0.0000   0.0000   0.0000   0.0000

          k = 0.5000-0.5000 0.5000 (  1160 PWs)   bands (ev):

   -69.4719 -35.5671 -35.5671 -35.5671  14.9244  14.9244  14.9244  17.7535
    17.7535  26.1340  26.1340  26.1340

     occupation numbers 
     1.0000   1.0000   1.0000   1.0000   1.0000   1.0000   1.0000   0.0043
     0.0043   0.0000   0.0000   0.0000

          k = 0.0000 0.0000 0.6250 (  1152 PWs)   bands (ev):

   -69.4586 -35.6211 -35.5675 -35.5675  13.9369  14.7543  16.8931  16.8931
    17.6559  19.9658  31.6222  31.6222

     occupation numbers 
     1.0000   1.0000   1.0000   1.0000   1.0000   1.0000   1.0000   1.0000
     0.0647   0.0000   0.0000   0.0000

          k = 0.0000-0.0625 0.6875 (  1149 PWs)   bands (ev):

   -69.4494 -35.6495 -35.5900 -35.5761  14.0405  14.4326  17.0364  17.1603
    18.0007  21.1874  29.6648  30.5318

     occupation numbers 
     1.0000   1.0000   1.0000   1.0000   1.0000   1.0000   1.0000   1.0025
     0.0000   0.0000   0.0000   0.0000

          k = 0.0000-0.1250 0.7500 (  1152 PWs)   bands (ev):

   -69.4432 -35.6771 -35.6050 -35.5733  14.0603  14.2293  17.0429  17.3212
    18.3628  22.7940  27.3683  29.8026

     occupation numbers 
     1.0000   1.0000   1.0000   1.0000   1.0000   1.0000   1.0000   1.0690
     0.0000   0.0000   0.0000   0.0000

          k = 0.0000 0.8125-0.1875 (  1156 PWs)   bands (ev):

   -69.4410 -35.6873 -35.6102 -35.5717  14.0421  14.1790  17.0371  17.3704
    18.5082  24.1523  25.7699  29.5428

     occupation numbers 
     1.0000   1.0000   1.0000   1.0000   1.0000   1.0000   1.0000   1.0817
     0.0000   0.0000   0.0000   0.0000

          k =-0.0625-0.0625 0.7500 (  1154 PWs)   bands (ev):

   -69.4419 -35.6629 -35.6164 -35.5836  14.0184  14.1702  17.1381  17.5530
    18.2158  22.6423  28.6989  28.9094

     occupation numbers 
     1.0000   1.0000   1.0000   1.0000   1.0000   1.0000   1.0012   0.3960
     0.0000   0.0000   0.0000   0.0000

          k =-0.0625 0.8750-0.1875 (  1155 PWs)   bands (ev):

   -69.4378 -35.6736 -35.6322 -35.5825  13.9873  14.0344  17.1401  17.7847
    18.3862  24.3760  26.7133  28.3431

     occupation numbers 
     1.0000   1.0000   1.0000   1.0000   1.0000   1.0000   1.0013   0.0015
     0.0000   0.0000   0.0000   0.0000

          k =-0.1250 0.8750-0.1250 (  1156 PWs)   bands (ev):

   -69.4360 -35.6587 -35.6587 -35.5827  13.9626  13.9626  17.1371  18.1939
    18.1939  26.0357  26.0357  27.0561

     occupation numbers 
     1.0000   1.0000   1.0000   1.0000   1.0000   1.0000   1.0012   0.0000
     0.0000   0.0000   0.0000   0.0000

          k = 0.0000 0.0000 0.7500 (  1144 PWs)   bands (ev):

   -69.4406 -35.6443 -35.6129 -35.6129  13.9450  14.1315  17.5301  17.5301
    18.0579  22.4411  29.3762  29.3762

     occupation numbers 
     1.0000   1.0000   1.0000   1.0000   1.0000   1.0000   0.5164   0.5164
     0.0000   0.0000   0.0000   0.0000

          k = 0.0000-0.0625 0.8125 (  1155 PWs)   bands (ev):

   -69.4347 -35.6611 -35.6283 -35.6172  13.8601  13.9226  17.6900  17.7906
    18.3197  24.0104  27.8723  28.5937

     occupation numbers 
     1.0000   1.0000   1.0000   1.0000   1.0000   1.0000   0.0281   0.0012
     0.0000   0.0000   0.0000   0.0000

          k = 0.0000 0.8750-0.1250 (  1154 PWs)   bands (ev):

   -69.4327 -35.6702 -35.6336 -35.6154  13.8302  13.8467  17.7063  17.8792
    18.4649  25.5017  26.3015  28.3122

     occupation numbers 
     1.0000   1.0000   1.0000   1.0000   1.0000   1.0000   0.0181   0.0000
     0.0000   0.0000   0.0000   0.0000

          k =-0.0625 0.9375-0.1250 (  1156 PWs)   bands (ev):

   -69.4309 -35.6617 -35.6477 -35.6207  13.7718  13.7831  17.7819  18.1611
    18.3832  25.5957  27.2203  27.4694

     occupation numbers 
     1.0000   1.0000   1.0000   1.0000   1.0000   1.0000   0.0016   0.0000
     0.0000   0.0000   0.0000   0.0000

          k = 0.0000 0.0000 0.8750 (  1152 PWs)   bands (ev):

   -69.4291 -35.6529 -35.6438 -35.6438  13.7014  13.7234  18.1491  18.1491
    18.3298  25.3685  27.7640  27.7640

     occupation numbers 
     1.0000   1.0000   1.0000   1.0000   1.0000   1.0000   0.0000   0.0000
     0.0000   0.0000   0.0000   0.0000

          k = 0.0000 0.9375-0.0625 (  1154 PWs)   bands (ev):

   -69.4271 -35.6587 -35.6493 -35.6445  13.6479  13.6497  18.2248  18.2785
    18.4361  26.6453  26.8750  27.4624

     occupation numbers 
     1.0000   1.0000   1.0000   1.0000   1.0000   1.0000   0.0000   0.0000
     0.0000   0.0000   0.0000   0.0000

          k = 0.0000 0.0000-1.0000 (  1144 PWs)   bands (ev):

   -69.4252 -35.6547 -35.6547 -35.6547  13.5818  13.5818  18.4260  18.4260
    18.4260  27.1518  27.1518  27.1518

     occupation numbers 
     1.0000   1.0000   1.0000   1.0000   1.0000   1.0000   0.0000   0.0000
     0.0000   0.0000   0.0000   0.0000

     the Fermi energy is    17.5521 ev

!    total energy              =    -329.22697368 Ry
     total all-electron energy =     -2545.523507 Ry
     estimated scf accuracy    <          6.5E-13 Ry
     smearing contrib. (-TS)   =      -0.00029312 Ry
     internal energy E=F+TS    =    -329.22668056 Ry

     The total energy is F=E-TS. E is the sum of the following terms:
     one-electron contribution =    -112.98917479 Ry
     hartree contribution      =      66.03889075 Ry
     xc contribution           =     -27.58793622 Ry
     ewald contribution        =    -171.88999319 Ry
     one-center paw contrib.   =     -82.79846710 Ry
      -> PAW hartree energy AE =     182.46824417 Ry
      -> PAW hartree energy PS =    -181.17436177 Ry
      -> PAW xc energy AE      =    -109.99837942 Ry
      -> PAW xc energy PS      =      25.90602992 Ry
      -> total E_H with PAW    =      67.33277314 Ry
      -> total E_XC with PAW   =    -111.68028572 Ry

     convergence has been achieved in  12 iterations

     Forces acting on atoms (cartesian axes, Ry/au):

     atom    1 type  1   force =     0.00000000    0.00000000    0.00000000
     The non-local contrib.  to forces
     atom    1 type  1   force =     0.00000000   -0.00000000    0.00000000
     The ionic contribution  to forces
     atom    1 type  1   force =    -0.00000000   -0.00000000   -0.00000000
     The local contribution  to forces
     atom    1 type  1   force =    -0.00000000   -0.00000000    0.00000000
     The core correction contribution to forces
     atom    1 type  1   force =     0.00000000    0.00000000   -0.00000000
     The Hubbard contrib.    to forces
     atom    1 type  1   force =     0.00000000    0.00000000    0.00000000
     The SCF correction term to forces
     atom    1 type  1   force =     0.00000000    0.00000000   -0.00000000

     Total force =     0.000000     Total SCF correction =     0.000000


     Computing stress (Cartesian axis) and pressure

          total   stress  (Ry/bohr**3)                   (kbar)     P=     -243.50
  -0.00165527   0.00000000  -0.00000000         -243.50        0.00       -0.00
   0.00000000  -0.00165527   0.00000000            0.00     -243.50        0.00
  -0.00000000   0.00000000  -0.00165527           -0.00        0.00     -243.50

     kinetic stress (kbar)  95342.93      0.00     -0.00
                                0.00  95342.93      0.00
                               -0.00      0.00  95342.93

     local   stress (kbar)  12072.07     -0.00     -0.00
                               -0.00  12072.07      0.00
                               -0.00      0.00  12072.07

     nonloc. stress (kbar) -26204.67      0.00     -0.00
                                0.00 -26204.67      0.00
                               -0.00      0.00 -26204.67

     hartree stress (kbar)  40676.01      0.00      0.00
                                0.00  40676.01     -0.00
                                0.00     -0.00  40676.01

     exc-cor stress (kbar) -13632.41      0.00      0.00
                                0.00 -13632.41      0.00
                                0.00      0.00 -13632.41

     corecor stress (kbar)  -2623.47      0.00      0.00
                                0.00  -2623.47     -0.00
                                0.00     -0.00  -2623.47

     ewald   stress (kbar)-105873.96      0.00      0.00
                                0.00-105873.96      0.00
                                0.00      0.00-105873.96

     hubbard stress (kbar)      0.00      0.00      0.00
                                0.00      0.00      0.00
                                0.00      0.00      0.00

     DFT-D   stress (kbar)      0.00      0.00      0.00
                                0.00      0.00      0.00
                                0.00      0.00      0.00

     XDM     stress (kbar)      0.00      0.00      0.00
                                0.00      0.00      0.00
                                0.00      0.00      0.00

     dft-nl  stress (kbar)      0.00      0.00      0.00
                                0.00      0.00      0.00
                                0.00      0.00      0.00

     TS-vdW  stress (kbar)      0.00      0.00      0.00
                                0.00      0.00      0.00
                                0.00      0.00      0.00

     MDB     stress (kbar)      0.00      0.00      0.00
                                0.00      0.00      0.00
                                0.00      0.00      0.00

     3D-RISM stress (kbar)      0.00      0.00      0.00
                                0.00      0.00      0.00
                                0.00      0.00      0.00


     Writing all to output data dir ./tmp/fe_bcc_nm.save/ :
     XML data file, charge density, pseudopotentials, collected wavefunctions

     init_run     :      0.51s CPU      0.68s WALL (       1 calls)
     electrons    :      1.48s CPU      2.71s WALL (       1 calls)
     forces       :      0.02s CPU      0.03s WALL (       1 calls)
     stress       :      0.04s CPU      0.04s WALL (       1 calls)

     Called by init_run:
     wfcinit      :      0.03s CPU      0.07s WALL (       1 calls)
     wfcinit:atom :      0.00s CPU      0.00s WALL (      10 calls)
     wfcinit:wfcr :      0.03s CPU      0.07s WALL (      10 calls)
     potinit      :      0.20s CPU      0.30s WALL (       1 calls)
     hinit0       :      0.24s CPU      0.26s WALL (       1 calls)

     Called by electrons:
     c_bands      :      0.55s CPU      0.61s WALL (      13 calls)
     sum_band     :      0.16s CPU      0.18s WALL (      13 calls)
     v_of_rho     :      0.13s CPU      0.17s WALL (      13 calls)
     v_h          :      0.01s CPU      0.01s WALL (      13 calls)
     v_xc         :      0.14s CPU      0.18s WALL (      15 calls)
     newd         :      0.02s CPU      0.03s WALL (      13 calls)
     PAW_pot      :      0.60s CPU      1.57s WALL (      13 calls)
     mix_rho      :      0.01s CPU      0.01s WALL (      13 calls)

     Called by c_bands:
     init_us_2    :      0.01s CPU      0.01s WALL (     290 calls)
     cegterg      :      0.48s CPU      0.53s WALL (     130 calls)

     Called by sum_band:
     sum_band:wei :      0.01s CPU      0.01s WALL (      13 calls)
     sum_band:loo :      0.09s CPU      0.10s WALL (      13 calls)
     sum_band:buf :      0.00s CPU      0.00s WALL (     130 calls)
     sum_band:ini :      0.00s CPU      0.00s WALL (     130 calls)
     sum_band:cal :      0.00s CPU      0.00s WALL (     130 calls)
     sum_band:bec :      0.00s CPU      0.00s WALL (     130 calls)
     addusdens    :      0.02s CPU      0.02s WALL (      13 calls)
                                        0.00s GPU  (      13 calls)
     addusd:skk   :      0.00s CPU      0.00s WALL (      13 calls)
                                        0.00s GPU  (      13 calls)

     Called by *egterg:
     cdiaghg      :      0.05s CPU      0.10s WALL (     419 calls)
     cegterg:over :      0.01s CPU      0.02s WALL (     299 calls)
     cegterg:upda :      0.00s CPU      0.00s WALL (     299 calls)
     cegterg:last :      0.01s CPU      0.01s WALL (     241 calls)
     h_psi        :      0.41s CPU      0.45s WALL (     439 calls)
     s_psi        :      0.00s CPU      0.00s WALL (     439 calls)
     g_psi        :      0.00s CPU      0.00s WALL (     299 calls)

     Called by h_psi:
     h_psi:calbec :      0.01s CPU      0.02s WALL (     439 calls)
     vloc_psi     :      0.39s CPU      0.42s WALL (     439 calls)
     add_vuspsi   :      0.00s CPU      0.00s WALL (     439 calls)

     General routines
     calbec       :      0.02s CPU      0.03s WALL (     619 calls)
     fft          :      0.25s CPU      0.32s WALL (     193 calls)
     ffts         :      0.14s CPU      0.15s WALL (      26 calls)
     fftw         :      0.39s CPU      0.42s WALL (    9050 calls)
     interpolate  :      0.15s CPU      0.17s WALL (      13 calls)

     Parallel routines

     PAW routines
     PAW_pot      :      0.60s CPU      1.57s WALL (      13 calls)
     PAW_symme    :      0.01s CPU      0.01s WALL (      26 calls)

     PWSCF        :      2.20s CPU      5.09s WALL


   This run was terminated on:   6: 9:12  19May2025            

=------------------------------------------------------------------------------=
   JOB DONE.
=------------------------------------------------------------------------------=
