
     Program PWSCF v.7.3.1 starts on 19May2025 at  6:11: 7 

     This program is part of the open-source Quantum ESPRESSO suite
     for quantum simulation of materials; please cite
         "P. Giannozzi et al., J. Phys.:Condens. Matter 21 395502 (2009);
         "P. Giannozzi et al., J. Phys.:Condens. Matter 29 465901 (2017);
         "P. Giannozzi et al., J. Chem. Phys. 152 154105 (2020);
          URL http://www.quantum-espresso.org", 
     in publications or presentations arising from this work. More details at
     http://www.quantum-espresso.org/quote

     Parallel version (MPI & OpenMP), running on     128 processor cores
     Number of MPI processes:               128
     Threads/MPI process:                     1

     MPI processes distributed on     1 nodes
     470361 MiB available memory on the printing compute node when the environment starts

     Waiting for input...
     Reading input from standard input

     Current dimensions of program PWSCF are:
     Max number of different atomic species (ntypx) = 10
     Max number of k-points (npk) =  40000
     Max angular momentum in pseudopotentials (lmaxx) =  4
     file Fe.pbe-spn-kjpaw_psl.1.0.0.UPF: wavefunction(s)  3P 3D renormalized

     K-points division:     npool     =      16
     R & G space division:  proc/nbgrp/npool/nimage =       8
     Subspace diagonalization in iterative solution of the eigenvalue problem:
     a serial algorithm will be used


     Parallelization info
     --------------------
     sticks:   dense  smooth     PW     G-vecs:    dense   smooth      PW
     Min         222      74     22                 5949     1147     199
     Max         223      75     23                 5951     1149     201
     Sum        1781     599    181                47597     9189    1601

     Using Slab Decomposition



     bravais-lattice index     =            3
     lattice parameter (alat)  =       5.4200  a.u.
     unit-cell volume          =      79.6100 (a.u.)^3
     number of atoms/cell      =            1
     number of atomic types    =            1
     number of electrons       =        16.00
     number of Kohn-Sham states=           12
     kinetic-energy cutoff     =      90.0000  Ry
     charge density cutoff     =    1080.0000  Ry
     scf convergence threshold =      1.0E-10
     mixing beta               =       0.2000
     number of iterations used =            8  plain     mixing
     Exchange-correlation= SLA  PW   PBX  PBC
                           (   1   4   3   4   0   0   0)

     celldm(1)=   5.420000  celldm(2)=   0.000000  celldm(3)=   0.000000
     celldm(4)=   0.000000  celldm(5)=   0.000000  celldm(6)=   0.000000

     crystal axes: (cart. coord. in units of alat)
               a(1) = (   0.500000   0.500000   0.500000 )  
               a(2) = (  -0.500000   0.500000   0.500000 )  
               a(3) = (  -0.500000  -0.500000   0.500000 )  

     reciprocal axes: (cart. coord. in units 2 pi/alat)
               b(1) = (  1.000000  0.000000  1.000000 )  
               b(2) = ( -1.000000  1.000000  0.000000 )  
               b(3) = (  0.000000 -1.000000  1.000000 )  


     PseudoPot. # 1 for Fe read from file:
     ../../../pseudopotentials/Fe.pbe-spn-kjpaw_psl.1.0.0.UPF
     MD5 check sum: fc81f059e5c5069939230b1155715ae8
     Pseudo is Projector augmented-wave + core cor, Zval = 16.0
     Generated using &quot;atomic&quot; code by A. Dal Corso  v.6.3
     Shape of augmentation charge: PSQ
     Using radial grid of 1191 points,  6 beta functions with: 
                l(1) =   0
                l(2) =   0
                l(3) =   1
                l(4) =   1
                l(5) =   2
                l(6) =   2
     Q(r) pseudized with 0 coefficients 


     atomic species   valence    mass     pseudopotential
     Fe               16.00    55.84500     Fe( 1.00)

     Starting magnetic structure 
     atomic species   magnetization
     Fe              0.400

     48 Sym. Ops., with inversion, found


                                    s                        frac. trans.

      isym =  1     identity                                     

 cryst.   s( 1) = (     1          0          0      )
                  (     0          1          0      )
                  (     0          0          1      )

 cart.    s( 1) = (  1.0000000  0.0000000  0.0000000 )
                  (  0.0000000  1.0000000  0.0000000 )
                  (  0.0000000  0.0000000  1.0000000 )


      isym =  2     180 deg rotation - cart. axis [0,0,1]        

 cryst.   s( 2) = (     0          0          1      )
                  (     1         -1          1      )
                  (     1          0          0      )

 cart.    s( 2) = ( -1.0000000  0.0000000  0.0000000 )
                  (  0.0000000 -1.0000000  0.0000000 )
                  (  0.0000000  0.0000000  1.0000000 )


      isym =  3     180 deg rotation - cart. axis [0,1,0]        

 cryst.   s( 3) = (    -1          1         -1      )
                  (     0          0         -1      )
                  (     0         -1          0      )

 cart.    s( 3) = ( -1.0000000  0.0000000  0.0000000 )
                  (  0.0000000  1.0000000  0.0000000 )
                  (  0.0000000  0.0000000 -1.0000000 )


      isym =  4     180 deg rotation - cart. axis [1,0,0]        

 cryst.   s( 4) = (     0         -1          0      )
                  (    -1          0          0      )
                  (    -1          1         -1      )

 cart.    s( 4) = (  1.0000000  0.0000000  0.0000000 )
                  (  0.0000000 -1.0000000  0.0000000 )
                  (  0.0000000  0.0000000 -1.0000000 )


      isym =  5     180 deg rotation - cart. axis [1,1,0]        

 cryst.   s( 5) = (     0          0         -1      )
                  (     0         -1          0      )
                  (    -1          0          0      )

 cart.    s( 5) = (  0.0000000  1.0000000  0.0000000 )
                  (  1.0000000  0.0000000  0.0000000 )
                  (  0.0000000  0.0000000 -1.0000000 )


      isym =  6     180 deg rotation - cart. axis [1,-1,0]       

 cryst.   s( 6) = (    -1          0          0      )
                  (    -1          1         -1      )
                  (     0          0         -1      )

 cart.    s( 6) = (  0.0000000 -1.0000000  0.0000000 )
                  ( -1.0000000  0.0000000  0.0000000 )
                  (  0.0000000  0.0000000 -1.0000000 )


      isym =  7      90 deg rotation - cart. axis [0,0,-1]       

 cryst.   s( 7) = (     1         -1          1      )
                  (     1          0          0      )
                  (     0          1          0      )

 cart.    s( 7) = (  0.0000000  1.0000000  0.0000000 )
                  ( -1.0000000  0.0000000  0.0000000 )
                  (  0.0000000  0.0000000  1.0000000 )


      isym =  8      90 deg rotation - cart. axis [0,0,1]        

 cryst.   s( 8) = (     0          1          0      )
                  (     0          0          1      )
                  (     1         -1          1      )

 cart.    s( 8) = (  0.0000000 -1.0000000  0.0000000 )
                  (  1.0000000  0.0000000  0.0000000 )
                  (  0.0000000  0.0000000  1.0000000 )


      isym =  9     180 deg rotation - cart. axis [1,0,1]        

 cryst.   s( 9) = (     1         -1          1      )
                  (     0         -1          0      )
                  (     0          0         -1      )

 cart.    s( 9) = (  0.0000000  0.0000000  1.0000000 )
                  (  0.0000000 -1.0000000  0.0000000 )
                  (  1.0000000  0.0000000  0.0000000 )


      isym = 10     180 deg rotation - cart. axis [-1,0,1]       

 cryst.   s(10) = (    -1          0          0      )
                  (     0          0          1      )
                  (     0          1          0      )

 cart.    s(10) = (  0.0000000  0.0000000 -1.0000000 )
                  (  0.0000000 -1.0000000  0.0000000 )
                  ( -1.0000000  0.0000000  0.0000000 )


      isym = 11      90 deg rotation - cart. axis [0,1,0]        

 cryst.   s(11) = (     0          0         -1      )
                  (     1          0          0      )
                  (     1         -1          1      )

 cart.    s(11) = (  0.0000000  0.0000000  1.0000000 )
                  (  0.0000000  1.0000000  0.0000000 )
                  ( -1.0000000  0.0000000  0.0000000 )


      isym = 12      90 deg rotation - cart. axis [0,-1,0]       

 cryst.   s(12) = (     0          1          0      )
                  (    -1          1         -1      )
                  (    -1          0          0      )

 cart.    s(12) = (  0.0000000  0.0000000 -1.0000000 )
                  (  0.0000000  1.0000000  0.0000000 )
                  (  1.0000000  0.0000000  0.0000000 )


      isym = 13     180 deg rotation - cart. axis [0,1,1]        

 cryst.   s(13) = (     0          1          0      )
                  (     1          0          0      )
                  (     0          0         -1      )

 cart.    s(13) = ( -1.0000000  0.0000000  0.0000000 )
                  (  0.0000000  0.0000000  1.0000000 )
                  (  0.0000000  1.0000000  0.0000000 )


      isym = 14     180 deg rotation - cart. axis [0,1,-1]       

 cryst.   s(14) = (    -1          0          0      )
                  (     0         -1          0      )
                  (     1         -1          1      )

 cart.    s(14) = ( -1.0000000  0.0000000  0.0000000 )
                  (  0.0000000  0.0000000 -1.0000000 )
                  (  0.0000000 -1.0000000  0.0000000 )


      isym = 15      90 deg rotation - cart. axis [-1,0,0]       

 cryst.   s(15) = (     0          0         -1      )
                  (    -1          1         -1      )
                  (     0          1          0      )

 cart.    s(15) = (  1.0000000  0.0000000  0.0000000 )
                  (  0.0000000  0.0000000  1.0000000 )
                  (  0.0000000 -1.0000000  0.0000000 )


      isym = 16      90 deg rotation - cart. axis [1,0,0]        

 cryst.   s(16) = (     1         -1          1      )
                  (     0          0          1      )
                  (    -1          0          0      )

 cart.    s(16) = (  1.0000000  0.0000000  0.0000000 )
                  (  0.0000000  0.0000000 -1.0000000 )
                  (  0.0000000  1.0000000  0.0000000 )


      isym = 17     120 deg rotation - cart. axis [-1,-1,-1]     

 cryst.   s(17) = (     1          0          0      )
                  (     0          0         -1      )
                  (    -1          1         -1      )

 cart.    s(17) = (  0.0000000  1.0000000  0.0000000 )
                  (  0.0000000  0.0000000  1.0000000 )
                  (  1.0000000  0.0000000  0.0000000 )


      isym = 18     120 deg rotation - cart. axis [-1,1,1]       

 cryst.   s(18) = (    -1          1         -1      )
                  (     0          1          0      )
                  (     1          0          0      )

 cart.    s(18) = (  0.0000000 -1.0000000  0.0000000 )
                  (  0.0000000  0.0000000  1.0000000 )
                  ( -1.0000000  0.0000000  0.0000000 )


      isym = 19     120 deg rotation - cart. axis [1,1,-1]       

 cryst.   s(19) = (     0         -1          0      )
                  (     1         -1          1      )
                  (     0          0          1      )

 cart.    s(19) = (  0.0000000  1.0000000  0.0000000 )
                  (  0.0000000  0.0000000 -1.0000000 )
                  ( -1.0000000  0.0000000  0.0000000 )


      isym = 20     120 deg rotation - cart. axis [1,-1,1]       

 cryst.   s(20) = (     0          0          1      )
                  (    -1          0          0      )
                  (     0         -1          0      )

 cart.    s(20) = (  0.0000000 -1.0000000  0.0000000 )
                  (  0.0000000  0.0000000 -1.0000000 )
                  (  1.0000000  0.0000000  0.0000000 )


      isym = 21     120 deg rotation - cart. axis [1,1,1]        

 cryst.   s(21) = (     1          0          0      )
                  (     1         -1          1      )
                  (     0         -1          0      )

 cart.    s(21) = (  0.0000000  0.0000000  1.0000000 )
                  (  1.0000000  0.0000000  0.0000000 )
                  (  0.0000000  1.0000000  0.0000000 )


      isym = 22     120 deg rotation - cart. axis [-1,1,-1]      

 cryst.   s(22) = (     0         -1          0      )
                  (     0          0         -1      )
                  (     1          0          0      )

 cart.    s(22) = (  0.0000000  0.0000000  1.0000000 )
                  ( -1.0000000  0.0000000  0.0000000 )
                  (  0.0000000 -1.0000000  0.0000000 )


      isym = 23     120 deg rotation - cart. axis [1,-1,-1]      

 cryst.   s(23) = (     0          0          1      )
                  (     0          1          0      )
                  (    -1          1         -1      )

 cart.    s(23) = (  0.0000000  0.0000000 -1.0000000 )
                  ( -1.0000000  0.0000000  0.0000000 )
                  (  0.0000000  1.0000000  0.0000000 )


      isym = 24     120 deg rotation - cart. axis [-1,-1,1]      

 cryst.   s(24) = (    -1          1         -1      )
                  (    -1          0          0      )
                  (     0          0          1      )

 cart.    s(24) = (  0.0000000  0.0000000 -1.0000000 )
                  (  1.0000000  0.0000000  0.0000000 )
                  (  0.0000000 -1.0000000  0.0000000 )


      isym = 25     inversion                                    

 cryst.   s(25) = (    -1          0          0      )
                  (     0         -1          0      )
                  (     0          0         -1      )

 cart.    s(25) = ( -1.0000000  0.0000000  0.0000000 )
                  (  0.0000000 -1.0000000  0.0000000 )
                  (  0.0000000  0.0000000 -1.0000000 )


      isym = 26     inv. 180 deg rotation - cart. axis [0,0,1]   

 cryst.   s(26) = (     0          0         -1      )
                  (    -1          1         -1      )
                  (    -1          0          0      )

 cart.    s(26) = (  1.0000000  0.0000000  0.0000000 )
                  (  0.0000000  1.0000000  0.0000000 )
                  (  0.0000000  0.0000000 -1.0000000 )


      isym = 27     inv. 180 deg rotation - cart. axis [0,1,0]   

 cryst.   s(27) = (     1         -1          1      )
                  (     0          0          1      )
                  (     0          1          0      )

 cart.    s(27) = (  1.0000000  0.0000000  0.0000000 )
                  (  0.0000000 -1.0000000  0.0000000 )
                  (  0.0000000  0.0000000  1.0000000 )


      isym = 28     inv. 180 deg rotation - cart. axis [1,0,0]   

 cryst.   s(28) = (     0          1          0      )
                  (     1          0          0      )
                  (     1         -1          1      )

 cart.    s(28) = ( -1.0000000  0.0000000  0.0000000 )
                  (  0.0000000  1.0000000  0.0000000 )
                  (  0.0000000  0.0000000  1.0000000 )


      isym = 29     inv. 180 deg rotation - cart. axis [1,1,0]   

 cryst.   s(29) = (     0          0          1      )
                  (     0          1          0      )
                  (     1          0          0      )

 cart.    s(29) = (  0.0000000 -1.0000000  0.0000000 )
                  ( -1.0000000  0.0000000  0.0000000 )
                  (  0.0000000  0.0000000  1.0000000 )


      isym = 30     inv. 180 deg rotation - cart. axis [1,-1,0]  

 cryst.   s(30) = (     1          0          0      )
                  (     1         -1          1      )
                  (     0          0          1      )

 cart.    s(30) = (  0.0000000  1.0000000  0.0000000 )
                  (  1.0000000  0.0000000  0.0000000 )
                  (  0.0000000  0.0000000  1.0000000 )


      isym = 31     inv.  90 deg rotation - cart. axis [0,0,-1]  

 cryst.   s(31) = (    -1          1         -1      )
                  (    -1          0          0      )
                  (     0         -1          0      )

 cart.    s(31) = (  0.0000000 -1.0000000  0.0000000 )
                  (  1.0000000  0.0000000  0.0000000 )
                  (  0.0000000  0.0000000 -1.0000000 )


      isym = 32     inv.  90 deg rotation - cart. axis [0,0,1]   

 cryst.   s(32) = (     0         -1          0      )
                  (     0          0         -1      )
                  (    -1          1         -1      )

 cart.    s(32) = (  0.0000000  1.0000000  0.0000000 )
                  ( -1.0000000  0.0000000  0.0000000 )
                  (  0.0000000  0.0000000 -1.0000000 )


      isym = 33     inv. 180 deg rotation - cart. axis [1,0,1]   

 cryst.   s(33) = (    -1          1         -1      )
                  (     0          1          0      )
                  (     0          0          1      )

 cart.    s(33) = (  0.0000000  0.0000000 -1.0000000 )
                  (  0.0000000  1.0000000  0.0000000 )
                  ( -1.0000000  0.0000000  0.0000000 )


      isym = 34     inv. 180 deg rotation - cart. axis [-1,0,1]  

 cryst.   s(34) = (     1          0          0      )
                  (     0          0         -1      )
                  (     0         -1          0      )

 cart.    s(34) = (  0.0000000  0.0000000  1.0000000 )
                  (  0.0000000  1.0000000  0.0000000 )
                  (  1.0000000  0.0000000  0.0000000 )


      isym = 35     inv.  90 deg rotation - cart. axis [0,1,0]   

 cryst.   s(35) = (     0          0          1      )
                  (    -1          0          0      )
                  (    -1          1         -1      )

 cart.    s(35) = (  0.0000000  0.0000000 -1.0000000 )
                  (  0.0000000 -1.0000000  0.0000000 )
                  (  1.0000000  0.0000000  0.0000000 )


      isym = 36     inv.  90 deg rotation - cart. axis [0,-1,0]  

 cryst.   s(36) = (     0         -1          0      )
                  (     1         -1          1      )
                  (     1          0          0      )

 cart.    s(36) = (  0.0000000  0.0000000  1.0000000 )
                  (  0.0000000 -1.0000000  0.0000000 )
                  ( -1.0000000  0.0000000  0.0000000 )


      isym = 37     inv. 180 deg rotation - cart. axis [0,1,1]   

 cryst.   s(37) = (     0         -1          0      )
                  (    -1          0          0      )
                  (     0          0          1      )

 cart.    s(37) = (  1.0000000  0.0000000  0.0000000 )
                  (  0.0000000  0.0000000 -1.0000000 )
                  (  0.0000000 -1.0000000  0.0000000 )


      isym = 38     inv. 180 deg rotation - cart. axis [0,1,-1]  

 cryst.   s(38) = (     1          0          0      )
                  (     0          1          0      )
                  (    -1          1         -1      )

 cart.    s(38) = (  1.0000000  0.0000000  0.0000000 )
                  (  0.0000000  0.0000000  1.0000000 )
                  (  0.0000000  1.0000000  0.0000000 )


      isym = 39     inv.  90 deg rotation - cart. axis [-1,0,0]  

 cryst.   s(39) = (     0          0          1      )
                  (     1         -1          1      )
                  (     0         -1          0      )

 cart.    s(39) = ( -1.0000000  0.0000000  0.0000000 )
                  (  0.0000000  0.0000000 -1.0000000 )
                  (  0.0000000  1.0000000  0.0000000 )


      isym = 40     inv.  90 deg rotation - cart. axis [1,0,0]   

 cryst.   s(40) = (    -1          1         -1      )
                  (     0          0         -1      )
                  (     1          0          0      )

 cart.    s(40) = ( -1.0000000  0.0000000  0.0000000 )
                  (  0.0000000  0.0000000  1.0000000 )
                  (  0.0000000 -1.0000000  0.0000000 )


      isym = 41     inv. 120 deg rotation - cart. axis [-1,-1,-1]

 cryst.   s(41) = (    -1          0          0      )
                  (     0          0          1      )
                  (     1         -1          1      )

 cart.    s(41) = (  0.0000000 -1.0000000  0.0000000 )
                  (  0.0000000  0.0000000 -1.0000000 )
                  ( -1.0000000  0.0000000  0.0000000 )


      isym = 42     inv. 120 deg rotation - cart. axis [-1,1,1]  

 cryst.   s(42) = (     1         -1          1      )
                  (     0         -1          0      )
                  (    -1          0          0      )

 cart.    s(42) = (  0.0000000  1.0000000  0.0000000 )
                  (  0.0000000  0.0000000 -1.0000000 )
                  (  1.0000000  0.0000000  0.0000000 )


      isym = 43     inv. 120 deg rotation - cart. axis [1,1,-1]  

 cryst.   s(43) = (     0          1          0      )
                  (    -1          1         -1      )
                  (     0          0         -1      )

 cart.    s(43) = (  0.0000000 -1.0000000  0.0000000 )
                  (  0.0000000  0.0000000  1.0000000 )
                  (  1.0000000  0.0000000  0.0000000 )


      isym = 44     inv. 120 deg rotation - cart. axis [1,-1,1]  

 cryst.   s(44) = (     0          0         -1      )
                  (     1          0          0      )
                  (     0          1          0      )

 cart.    s(44) = (  0.0000000  1.0000000  0.0000000 )
                  (  0.0000000  0.0000000  1.0000000 )
                  ( -1.0000000  0.0000000  0.0000000 )


      isym = 45     inv. 120 deg rotation - cart. axis [1,1,1]   

 cryst.   s(45) = (    -1          0          0      )
                  (    -1          1         -1      )
                  (     0          1          0      )

 cart.    s(45) = (  0.0000000  0.0000000 -1.0000000 )
                  ( -1.0000000  0.0000000  0.0000000 )
                  (  0.0000000 -1.0000000  0.0000000 )


      isym = 46     inv. 120 deg rotation - cart. axis [-1,1,-1] 

 cryst.   s(46) = (     0          1          0      )
                  (     0          0          1      )
                  (    -1          0          0      )

 cart.    s(46) = (  0.0000000  0.0000000 -1.0000000 )
                  (  1.0000000  0.0000000  0.0000000 )
                  (  0.0000000  1.0000000  0.0000000 )


      isym = 47     inv. 120 deg rotation - cart. axis [1,-1,-1] 

 cryst.   s(47) = (     0          0         -1      )
                  (     0         -1          0      )
                  (     1         -1          1      )

 cart.    s(47) = (  0.0000000  0.0000000  1.0000000 )
                  (  1.0000000  0.0000000  0.0000000 )
                  (  0.0000000 -1.0000000  0.0000000 )


      isym = 48     inv. 120 deg rotation - cart. axis [-1,-1,1] 

 cryst.   s(48) = (     1         -1          1      )
                  (     1          0          0      )
                  (     0          0         -1      )

 cart.    s(48) = (  0.0000000  0.0000000  1.0000000 )
                  ( -1.0000000  0.0000000  0.0000000 )
                  (  0.0000000  1.0000000  0.0000000 )


     point group O_h (m-3m) 
     there are 10 classes
     the character table:

       E     8C3   3C2   6C4   6C2'  i     8S6   3s_h  6S4   6s_d 
A_1g   1.00  1.00  1.00  1.00  1.00  1.00  1.00  1.00  1.00  1.00
A_2g   1.00  1.00  1.00 -1.00 -1.00  1.00  1.00  1.00 -1.00 -1.00
E_g    2.00 -1.00  2.00  0.00  0.00  2.00 -1.00  2.00  0.00  0.00
T_1g   3.00  0.00 -1.00  1.00 -1.00  3.00  0.00 -1.00  1.00 -1.00
T_2g   3.00  0.00 -1.00 -1.00  1.00  3.00  0.00 -1.00 -1.00  1.00
A_1u   1.00  1.00  1.00  1.00  1.00 -1.00 -1.00 -1.00 -1.00 -1.00
A_2u   1.00  1.00  1.00 -1.00 -1.00 -1.00 -1.00 -1.00  1.00  1.00
E_u    2.00 -1.00  2.00  0.00  0.00 -2.00  1.00 -2.00  0.00  0.00
T_1u   3.00  0.00 -1.00  1.00 -1.00 -3.00  0.00  1.00 -1.00  1.00
T_2u   3.00  0.00 -1.00 -1.00  1.00 -3.00  0.00  1.00  1.00 -1.00

     the symmetry operations in each class and the name of the first element:

     E        1
          identity                                               
     8C3     17   19   20   18   24   21   22   23
          120 deg rotation - cart. axis [-1,-1,-1]               
     3C2      2    4    3
          180 deg rotation - cart. axis [0,0,1]                  
     6C4      7    8   15   16   12   11
           90 deg rotation - cart. axis [0,0,-1]                 
     6C2'     5    6   14   13   10    9
          180 deg rotation - cart. axis [1,1,0]                  
     i       25
          inversion                                              
     8S6     41   43   44   42   48   45   46   47
          inv. 120 deg rotation - cart. axis [-1,-1,-1]          
     3s_h    26   28   27
          inv. 180 deg rotation - cart. axis [0,0,1]             
     6S4     31   32   39   40   36   35
          inv.  90 deg rotation - cart. axis [0,0,-1]            
     6s_d    29   30   38   37   34   33
          inv. 180 deg rotation - cart. axis [1,1,0]             

   Cartesian axes

     site n.     atom                  positions (alat units)
         1        Fe     tau(   1) = (   0.0000000   0.0000000   0.0000000  )

   Crystallographic axes

     site n.     atom                  positions (cryst. coord.)
         1        Fe     tau(   1) = (  0.0000000  0.0000000  0.0000000  )

     number of k points=   145  Marzari-Vanderbilt smearing, width (Ry)=  0.0100
                       cart. coord. in units 2pi/alat
        k(    1) = (   0.0000000   0.0000000   0.0000000), wk =   0.0002441
        k(    2) = (   0.0000000  -0.0625000   0.0625000), wk =   0.0029297
        k(    3) = (   0.0000000  -0.1250000   0.1250000), wk =   0.0029297
        k(    4) = (   0.0000000  -0.1875000   0.1875000), wk =   0.0029297
        k(    5) = (   0.0000000  -0.2500000   0.2500000), wk =   0.0029297
        k(    6) = (   0.0000000  -0.3125000   0.3125000), wk =   0.0029297
        k(    7) = (   0.0000000  -0.3750000   0.3750000), wk =   0.0029297
        k(    8) = (   0.0000000  -0.4375000   0.4375000), wk =   0.0029297
        k(    9) = (   0.0000000   0.5000000  -0.5000000), wk =   0.0014648
        k(   10) = (  -0.0625000  -0.0625000   0.1250000), wk =   0.0058594
        k(   11) = (  -0.0625000  -0.1250000   0.1875000), wk =   0.0117188
        k(   12) = (  -0.0625000  -0.1875000   0.2500000), wk =   0.0117188
        k(   13) = (  -0.0625000  -0.2500000   0.3125000), wk =   0.0117188
        k(   14) = (  -0.0625000  -0.3125000   0.3750000), wk =   0.0117188
        k(   15) = (  -0.0625000  -0.3750000   0.4375000), wk =   0.0117188
        k(   16) = (  -0.0625000   0.5625000  -0.5000000), wk =   0.0117188
        k(   17) = (  -0.1250000  -0.1250000   0.2500000), wk =   0.0058594
        k(   18) = (  -0.1250000  -0.1875000   0.3125000), wk =   0.0117188
        k(   19) = (  -0.1250000  -0.2500000   0.3750000), wk =   0.0117188
        k(   20) = (  -0.1250000  -0.3125000   0.4375000), wk =   0.0117188
        k(   21) = (  -0.1250000   0.6250000  -0.5000000), wk =   0.0117188
        k(   22) = (  -0.1250000   0.5625000  -0.4375000), wk =   0.0058594
        k(   23) = (  -0.1875000  -0.1875000   0.3750000), wk =   0.0058594
        k(   24) = (  -0.1875000  -0.2500000   0.4375000), wk =   0.0117188
        k(   25) = (  -0.1875000   0.6875000  -0.5000000), wk =   0.0117188
        k(   26) = (  -0.1875000   0.6250000  -0.4375000), wk =   0.0117188
        k(   27) = (  -0.2500000   0.7500000  -0.5000000), wk =   0.0058594
        k(   28) = (  -0.2500000   0.6875000  -0.4375000), wk =   0.0117188
        k(   29) = (  -0.2500000   0.6250000  -0.3750000), wk =   0.0058594
        k(   30) = (  -0.3125000   0.6875000  -0.3750000), wk =   0.0058594
        k(   31) = (   0.0000000   0.0000000   0.1250000), wk =   0.0014648
        k(   32) = (   0.0000000  -0.0625000   0.1875000), wk =   0.0058594
        k(   33) = (   0.0000000  -0.1250000   0.2500000), wk =   0.0058594
        k(   34) = (   0.0000000  -0.1875000   0.3125000), wk =   0.0058594
        k(   35) = (   0.0000000  -0.2500000   0.3750000), wk =   0.0058594
        k(   36) = (   0.0000000  -0.3125000   0.4375000), wk =   0.0058594
        k(   37) = (   0.0000000  -0.3750000   0.5000000), wk =   0.0058594
        k(   38) = (   0.0000000   0.5625000  -0.4375000), wk =   0.0029297
        k(   39) = (  -0.0625000  -0.0625000   0.2500000), wk =   0.0058594
        k(   40) = (  -0.0625000  -0.1250000   0.3125000), wk =   0.0117188
        k(   41) = (  -0.0625000  -0.1875000   0.3750000), wk =   0.0117188
        k(   42) = (  -0.0625000  -0.2500000   0.4375000), wk =   0.0117188
        k(   43) = (  -0.0625000  -0.3125000   0.5000000), wk =   0.0117188
        k(   44) = (  -0.0625000   0.6250000  -0.4375000), wk =   0.0117188
        k(   45) = (  -0.1250000   0.1250000   0.1250000), wk =   0.0019531
        k(   46) = (  -0.1250000  -0.1250000   0.3750000), wk =   0.0058594
        k(   47) = (  -0.1250000  -0.1875000   0.4375000), wk =   0.0117188
        k(   48) = (  -0.1250000  -0.2500000   0.5000000), wk =   0.0117188
        k(   49) = (  -0.1250000   0.6875000  -0.4375000), wk =   0.0117188
        k(   50) = (  -0.1250000   0.6250000  -0.3750000), wk =   0.0058594
        k(   51) = (  -0.1875000   0.1875000   0.1250000), wk =   0.0058594
        k(   52) = (  -0.1875000  -0.1875000   0.5000000), wk =   0.0058594
        k(   53) = (  -0.1875000   0.7500000  -0.4375000), wk =   0.0117188
        k(   54) = (  -0.1875000   0.6875000  -0.3750000), wk =   0.0117188
        k(   55) = (  -0.2500000   0.2500000   0.1250000), wk =   0.0058594
        k(   56) = (  -0.2500000   0.1875000   0.1875000), wk =   0.0058594
        k(   57) = (  -0.2500000   0.7500000  -0.3750000), wk =   0.0058594
        k(   58) = (  -0.2500000   0.6875000  -0.3125000), wk =   0.0058594
        k(   59) = (  -0.3125000   0.3125000   0.1250000), wk =   0.0058594
        k(   60) = (  -0.3125000   0.2500000   0.1875000), wk =   0.0117188
        k(   61) = (  -0.3750000   0.3750000   0.1250000), wk =   0.0058594
        k(   62) = (  -0.3750000   0.3125000   0.1875000), wk =   0.0117188
        k(   63) = (  -0.3750000   0.2500000   0.2500000), wk =   0.0058594
        k(   64) = (   0.5625000  -0.5625000   0.1250000), wk =   0.0058594
        k(   65) = (   0.5625000  -0.6250000   0.1875000), wk =   0.0117188
        k(   66) = (   0.5625000  -0.6875000   0.2500000), wk =   0.0117188
        k(   67) = (   0.5000000  -0.5000000   0.1250000), wk =   0.0029297
        k(   68) = (   0.5000000  -0.5625000   0.1875000), wk =   0.0117188
        k(   69) = (   0.5000000  -0.6250000   0.2500000), wk =   0.0117188
        k(   70) = (   0.5000000  -0.6875000   0.3125000), wk =   0.0058594
        k(   71) = (   0.4375000  -0.5625000   0.2500000), wk =   0.0058594
        k(   72) = (   0.4375000  -0.6250000   0.3125000), wk =   0.0117188
        k(   73) = (   0.3750000  -0.6250000   0.3750000), wk =   0.0019531
        k(   74) = (   0.0000000   0.0000000   0.2500000), wk =   0.0014648
        k(   75) = (   0.0000000  -0.0625000   0.3125000), wk =   0.0058594
        k(   76) = (   0.0000000  -0.1250000   0.3750000), wk =   0.0058594
        k(   77) = (   0.0000000  -0.1875000   0.4375000), wk =   0.0058594
        k(   78) = (   0.0000000  -0.2500000   0.5000000), wk =   0.0058594
        k(   79) = (   0.0000000  -0.3125000   0.5625000), wk =   0.0058594
        k(   80) = (   0.0000000   0.6250000  -0.3750000), wk =   0.0029297
        k(   81) = (  -0.0625000  -0.0625000   0.3750000), wk =   0.0058594
        k(   82) = (  -0.0625000  -0.1250000   0.4375000), wk =   0.0117188
        k(   83) = (  -0.0625000  -0.1875000   0.5000000), wk =   0.0117188
        k(   84) = (  -0.0625000  -0.2500000   0.5625000), wk =   0.0117188
        k(   85) = (  -0.0625000   0.6875000  -0.3750000), wk =   0.0117188
        k(   86) = (  -0.1250000  -0.1250000   0.5000000), wk =   0.0058594
        k(   87) = (  -0.1250000  -0.1875000   0.5625000), wk =   0.0117188
        k(   88) = (  -0.1250000   0.7500000  -0.3750000), wk =   0.0117188
        k(   89) = (  -0.1250000   0.6875000  -0.3125000), wk =   0.0058594
        k(   90) = (  -0.1875000   0.8125000  -0.3750000), wk =   0.0058594
        k(   91) = (  -0.1875000   0.7500000  -0.3125000), wk =   0.0117188
        k(   92) = (  -0.2500000   0.2500000   0.2500000), wk =   0.0019531
        k(   93) = (  -0.2500000   0.7500000  -0.2500000), wk =   0.0019531
        k(   94) = (  -0.3125000   0.3125000   0.2500000), wk =   0.0058594
        k(   95) = (   0.6250000  -0.6250000   0.2500000), wk =   0.0058594
        k(   96) = (   0.6250000  -0.6875000   0.3125000), wk =   0.0058594
        k(   97) = (   0.5625000  -0.5625000   0.2500000), wk =   0.0058594
        k(   98) = (   0.5625000  -0.6250000   0.3125000), wk =   0.0117188
        k(   99) = (   0.5000000  -0.5000000   0.2500000), wk =   0.0029297
        k(  100) = (   0.5000000  -0.5625000   0.3125000), wk =   0.0117188
        k(  101) = (   0.5000000  -0.6250000   0.3750000), wk =   0.0058594
        k(  102) = (   0.4375000  -0.5625000   0.3750000), wk =   0.0058594
        k(  103) = (   0.0000000   0.0000000   0.3750000), wk =   0.0014648
        k(  104) = (   0.0000000  -0.0625000   0.4375000), wk =   0.0058594
        k(  105) = (   0.0000000  -0.1250000   0.5000000), wk =   0.0058594
        k(  106) = (   0.0000000  -0.1875000   0.5625000), wk =   0.0058594
        k(  107) = (   0.0000000  -0.2500000   0.6250000), wk =   0.0058594
        k(  108) = (   0.0000000   0.6875000  -0.3125000), wk =   0.0029297
        k(  109) = (  -0.0625000  -0.0625000   0.5000000), wk =   0.0058594
        k(  110) = (  -0.0625000  -0.1250000   0.5625000), wk =   0.0117188
        k(  111) = (  -0.0625000  -0.1875000   0.6250000), wk =   0.0117188
        k(  112) = (  -0.0625000   0.7500000  -0.3125000), wk =   0.0117188
        k(  113) = (  -0.1250000  -0.1250000   0.6250000), wk =   0.0058594
        k(  114) = (  -0.1250000   0.8125000  -0.3125000), wk =   0.0117188
        k(  115) = (  -0.1250000   0.7500000  -0.2500000), wk =   0.0058594
        k(  116) = (  -0.1875000   0.8125000  -0.2500000), wk =   0.0058594
        k(  117) = (   0.6250000  -0.6250000   0.3750000), wk =   0.0019531
        k(  118) = (   0.5625000  -0.5625000   0.3750000), wk =   0.0058594
        k(  119) = (   0.5000000  -0.5000000   0.3750000), wk =   0.0029297
        k(  120) = (   0.5000000  -0.5625000   0.4375000), wk =   0.0058594
        k(  121) = (   0.0000000   0.0000000   0.5000000), wk =   0.0014648
        k(  122) = (   0.0000000  -0.0625000   0.5625000), wk =   0.0058594
        k(  123) = (   0.0000000  -0.1250000   0.6250000), wk =   0.0058594
        k(  124) = (   0.0000000  -0.1875000   0.6875000), wk =   0.0058594
        k(  125) = (   0.0000000   0.7500000  -0.2500000), wk =   0.0029297
        k(  126) = (  -0.0625000  -0.0625000   0.6250000), wk =   0.0058594
        k(  127) = (  -0.0625000  -0.1250000   0.6875000), wk =   0.0117188
        k(  128) = (  -0.0625000   0.8125000  -0.2500000), wk =   0.0117188
        k(  129) = (  -0.1250000   0.8750000  -0.2500000), wk =   0.0058594
        k(  130) = (  -0.1250000   0.8125000  -0.1875000), wk =   0.0058594
        k(  131) = (   0.5000000  -0.5000000   0.5000000), wk =   0.0004883
        k(  132) = (   0.0000000   0.0000000   0.6250000), wk =   0.0014648
        k(  133) = (   0.0000000  -0.0625000   0.6875000), wk =   0.0058594
        k(  134) = (   0.0000000  -0.1250000   0.7500000), wk =   0.0058594
        k(  135) = (   0.0000000   0.8125000  -0.1875000), wk =   0.0029297
        k(  136) = (  -0.0625000  -0.0625000   0.7500000), wk =   0.0058594
        k(  137) = (  -0.0625000   0.8750000  -0.1875000), wk =   0.0117188
        k(  138) = (  -0.1250000   0.8750000  -0.1250000), wk =   0.0019531
        k(  139) = (   0.0000000   0.0000000   0.7500000), wk =   0.0014648
        k(  140) = (   0.0000000  -0.0625000   0.8125000), wk =   0.0058594
        k(  141) = (   0.0000000   0.8750000  -0.1250000), wk =   0.0029297
        k(  142) = (  -0.0625000   0.9375000  -0.1250000), wk =   0.0058594
        k(  143) = (   0.0000000   0.0000000   0.8750000), wk =   0.0014648
        k(  144) = (   0.0000000   0.9375000  -0.0625000), wk =   0.0029297
        k(  145) = (   0.0000000   0.0000000  -1.0000000), wk =   0.0002441

                       cryst. coord.
        k(    1) = (   0.0000000   0.0000000   0.0000000), wk =   0.0002441
        k(    2) = (   0.0000000   0.0000000   0.0625000), wk =   0.0029297
        k(    3) = (   0.0000000   0.0000000   0.1250000), wk =   0.0029297
        k(    4) = (   0.0000000   0.0000000   0.1875000), wk =   0.0029297
        k(    5) = (   0.0000000   0.0000000   0.2500000), wk =   0.0029297
        k(    6) = (   0.0000000   0.0000000   0.3125000), wk =   0.0029297
        k(    7) = (   0.0000000   0.0000000   0.3750000), wk =   0.0029297
        k(    8) = (   0.0000000   0.0000000   0.4375000), wk =   0.0029297
        k(    9) = (   0.0000000   0.0000000  -0.5000000), wk =   0.0014648
        k(   10) = (   0.0000000   0.0625000   0.1250000), wk =   0.0058594
        k(   11) = (   0.0000000   0.0625000   0.1875000), wk =   0.0117188
        k(   12) = (   0.0000000   0.0625000   0.2500000), wk =   0.0117188
        k(   13) = (   0.0000000   0.0625000   0.3125000), wk =   0.0117188
        k(   14) = (   0.0000000   0.0625000   0.3750000), wk =   0.0117188
        k(   15) = (   0.0000000   0.0625000   0.4375000), wk =   0.0117188
        k(   16) = (   0.0000000   0.0625000  -0.5000000), wk =   0.0117188
        k(   17) = (   0.0000000   0.1250000   0.2500000), wk =   0.0058594
        k(   18) = (   0.0000000   0.1250000   0.3125000), wk =   0.0117188
        k(   19) = (   0.0000000   0.1250000   0.3750000), wk =   0.0117188
        k(   20) = (   0.0000000   0.1250000   0.4375000), wk =   0.0117188
        k(   21) = (   0.0000000   0.1250000  -0.5000000), wk =   0.0117188
        k(   22) = (   0.0000000   0.1250000  -0.4375000), wk =   0.0058594
        k(   23) = (   0.0000000   0.1875000   0.3750000), wk =   0.0058594
        k(   24) = (   0.0000000   0.1875000   0.4375000), wk =   0.0117188
        k(   25) = (   0.0000000   0.1875000  -0.5000000), wk =   0.0117188
        k(   26) = (   0.0000000   0.1875000  -0.4375000), wk =   0.0117188
        k(   27) = (   0.0000000   0.2500000  -0.5000000), wk =   0.0058594
        k(   28) = (   0.0000000   0.2500000  -0.4375000), wk =   0.0117188
        k(   29) = (   0.0000000   0.2500000  -0.3750000), wk =   0.0058594
        k(   30) = (   0.0000000   0.3125000  -0.3750000), wk =   0.0058594
        k(   31) = (   0.0625000   0.0625000   0.0625000), wk =   0.0014648
        k(   32) = (   0.0625000   0.0625000   0.1250000), wk =   0.0058594
        k(   33) = (   0.0625000   0.0625000   0.1875000), wk =   0.0058594
        k(   34) = (   0.0625000   0.0625000   0.2500000), wk =   0.0058594
        k(   35) = (   0.0625000   0.0625000   0.3125000), wk =   0.0058594
        k(   36) = (   0.0625000   0.0625000   0.3750000), wk =   0.0058594
        k(   37) = (   0.0625000   0.0625000   0.4375000), wk =   0.0058594
        k(   38) = (   0.0625000   0.0625000  -0.5000000), wk =   0.0029297
        k(   39) = (   0.0625000   0.1250000   0.1875000), wk =   0.0058594
        k(   40) = (   0.0625000   0.1250000   0.2500000), wk =   0.0117188
        k(   41) = (   0.0625000   0.1250000   0.3125000), wk =   0.0117188
        k(   42) = (   0.0625000   0.1250000   0.3750000), wk =   0.0117188
        k(   43) = (   0.0625000   0.1250000   0.4375000), wk =   0.0117188
        k(   44) = (   0.0625000   0.1250000  -0.5000000), wk =   0.0117188
        k(   45) = (   0.0625000   0.1875000   0.0625000), wk =   0.0019531
        k(   46) = (   0.0625000   0.1875000   0.3125000), wk =   0.0058594
        k(   47) = (   0.0625000   0.1875000   0.3750000), wk =   0.0117188
        k(   48) = (   0.0625000   0.1875000   0.4375000), wk =   0.0117188
        k(   49) = (   0.0625000   0.1875000  -0.5000000), wk =   0.0117188
        k(   50) = (   0.0625000   0.1875000  -0.4375000), wk =   0.0058594
        k(   51) = (   0.0625000   0.2500000   0.0625000), wk =   0.0058594
        k(   52) = (   0.0625000   0.2500000   0.4375000), wk =   0.0058594
        k(   53) = (   0.0625000   0.2500000  -0.5000000), wk =   0.0117188
        k(   54) = (   0.0625000   0.2500000  -0.4375000), wk =   0.0117188
        k(   55) = (   0.0625000   0.3125000   0.0625000), wk =   0.0058594
        k(   56) = (   0.0625000   0.3125000   0.1250000), wk =   0.0058594
        k(   57) = (   0.0625000   0.3125000  -0.4375000), wk =   0.0058594
        k(   58) = (   0.0625000   0.3125000  -0.3750000), wk =   0.0058594
        k(   59) = (   0.0625000   0.3750000   0.0625000), wk =   0.0058594
        k(   60) = (   0.0625000   0.3750000   0.1250000), wk =   0.0117188
        k(   61) = (   0.0625000   0.4375000   0.0625000), wk =   0.0058594
        k(   62) = (   0.0625000   0.4375000   0.1250000), wk =   0.0117188
        k(   63) = (   0.0625000   0.4375000   0.1875000), wk =   0.0058594
        k(   64) = (   0.0625000  -0.5000000   0.0625000), wk =   0.0058594
        k(   65) = (   0.0625000  -0.5000000   0.1250000), wk =   0.0117188
        k(   66) = (   0.0625000  -0.5000000   0.1875000), wk =   0.0117188
        k(   67) = (   0.0625000  -0.4375000   0.0625000), wk =   0.0029297
        k(   68) = (   0.0625000  -0.4375000   0.1250000), wk =   0.0117188
        k(   69) = (   0.0625000  -0.4375000   0.1875000), wk =   0.0117188
        k(   70) = (   0.0625000  -0.4375000   0.2500000), wk =   0.0058594
        k(   71) = (   0.0625000  -0.3750000   0.1875000), wk =   0.0058594
        k(   72) = (   0.0625000  -0.3750000   0.2500000), wk =   0.0117188
        k(   73) = (   0.0625000  -0.3125000   0.3125000), wk =   0.0019531
        k(   74) = (   0.1250000   0.1250000   0.1250000), wk =   0.0014648
        k(   75) = (   0.1250000   0.1250000   0.1875000), wk =   0.0058594
        k(   76) = (   0.1250000   0.1250000   0.2500000), wk =   0.0058594
        k(   77) = (   0.1250000   0.1250000   0.3125000), wk =   0.0058594
        k(   78) = (   0.1250000   0.1250000   0.3750000), wk =   0.0058594
        k(   79) = (   0.1250000   0.1250000   0.4375000), wk =   0.0058594
        k(   80) = (   0.1250000   0.1250000  -0.5000000), wk =   0.0029297
        k(   81) = (   0.1250000   0.1875000   0.2500000), wk =   0.0058594
        k(   82) = (   0.1250000   0.1875000   0.3125000), wk =   0.0117188
        k(   83) = (   0.1250000   0.1875000   0.3750000), wk =   0.0117188
        k(   84) = (   0.1250000   0.1875000   0.4375000), wk =   0.0117188
        k(   85) = (   0.1250000   0.1875000  -0.5000000), wk =   0.0117188
        k(   86) = (   0.1250000   0.2500000   0.3750000), wk =   0.0058594
        k(   87) = (   0.1250000   0.2500000   0.4375000), wk =   0.0117188
        k(   88) = (   0.1250000   0.2500000  -0.5000000), wk =   0.0117188
        k(   89) = (   0.1250000   0.2500000  -0.4375000), wk =   0.0058594
        k(   90) = (   0.1250000   0.3125000  -0.5000000), wk =   0.0058594
        k(   91) = (   0.1250000   0.3125000  -0.4375000), wk =   0.0117188
        k(   92) = (   0.1250000   0.3750000   0.1250000), wk =   0.0019531
        k(   93) = (   0.1250000   0.3750000  -0.3750000), wk =   0.0019531
        k(   94) = (   0.1250000   0.4375000   0.1250000), wk =   0.0058594
        k(   95) = (   0.1250000  -0.5000000   0.1250000), wk =   0.0058594
        k(   96) = (   0.1250000  -0.5000000   0.1875000), wk =   0.0058594
        k(   97) = (   0.1250000  -0.4375000   0.1250000), wk =   0.0058594
        k(   98) = (   0.1250000  -0.4375000   0.1875000), wk =   0.0117188
        k(   99) = (   0.1250000  -0.3750000   0.1250000), wk =   0.0029297
        k(  100) = (   0.1250000  -0.3750000   0.1875000), wk =   0.0117188
        k(  101) = (   0.1250000  -0.3750000   0.2500000), wk =   0.0058594
        k(  102) = (   0.1250000  -0.3125000   0.2500000), wk =   0.0058594
        k(  103) = (   0.1875000   0.1875000   0.1875000), wk =   0.0014648
        k(  104) = (   0.1875000   0.1875000   0.2500000), wk =   0.0058594
        k(  105) = (   0.1875000   0.1875000   0.3125000), wk =   0.0058594
        k(  106) = (   0.1875000   0.1875000   0.3750000), wk =   0.0058594
        k(  107) = (   0.1875000   0.1875000   0.4375000), wk =   0.0058594
        k(  108) = (   0.1875000   0.1875000  -0.5000000), wk =   0.0029297
        k(  109) = (   0.1875000   0.2500000   0.3125000), wk =   0.0058594
        k(  110) = (   0.1875000   0.2500000   0.3750000), wk =   0.0117188
        k(  111) = (   0.1875000   0.2500000   0.4375000), wk =   0.0117188
        k(  112) = (   0.1875000   0.2500000  -0.5000000), wk =   0.0117188
        k(  113) = (   0.1875000   0.3125000   0.4375000), wk =   0.0058594
        k(  114) = (   0.1875000   0.3125000  -0.5000000), wk =   0.0117188
        k(  115) = (   0.1875000   0.3125000  -0.4375000), wk =   0.0058594
        k(  116) = (   0.1875000   0.3750000  -0.4375000), wk =   0.0058594
        k(  117) = (   0.1875000  -0.4375000   0.1875000), wk =   0.0019531
        k(  118) = (   0.1875000  -0.3750000   0.1875000), wk =   0.0058594
        k(  119) = (   0.1875000  -0.3125000   0.1875000), wk =   0.0029297
        k(  120) = (   0.1875000  -0.3125000   0.2500000), wk =   0.0058594
        k(  121) = (   0.2500000   0.2500000   0.2500000), wk =   0.0014648
        k(  122) = (   0.2500000   0.2500000   0.3125000), wk =   0.0058594
        k(  123) = (   0.2500000   0.2500000   0.3750000), wk =   0.0058594
        k(  124) = (   0.2500000   0.2500000   0.4375000), wk =   0.0058594
        k(  125) = (   0.2500000   0.2500000  -0.5000000), wk =   0.0029297
        k(  126) = (   0.2500000   0.3125000   0.3750000), wk =   0.0058594
        k(  127) = (   0.2500000   0.3125000   0.4375000), wk =   0.0117188
        k(  128) = (   0.2500000   0.3125000  -0.5000000), wk =   0.0117188
        k(  129) = (   0.2500000   0.3750000  -0.5000000), wk =   0.0058594
        k(  130) = (   0.2500000   0.3750000  -0.4375000), wk =   0.0058594
        k(  131) = (   0.2500000  -0.2500000   0.2500000), wk =   0.0004883
        k(  132) = (   0.3125000   0.3125000   0.3125000), wk =   0.0014648
        k(  133) = (   0.3125000   0.3125000   0.3750000), wk =   0.0058594
        k(  134) = (   0.3125000   0.3125000   0.4375000), wk =   0.0058594
        k(  135) = (   0.3125000   0.3125000  -0.5000000), wk =   0.0029297
        k(  136) = (   0.3125000   0.3750000   0.4375000), wk =   0.0058594
        k(  137) = (   0.3125000   0.3750000  -0.5000000), wk =   0.0117188
        k(  138) = (   0.3125000   0.4375000  -0.4375000), wk =   0.0019531
        k(  139) = (   0.3750000   0.3750000   0.3750000), wk =   0.0014648
        k(  140) = (   0.3750000   0.3750000   0.4375000), wk =   0.0058594
        k(  141) = (   0.3750000   0.3750000  -0.5000000), wk =   0.0029297
        k(  142) = (   0.3750000   0.4375000  -0.5000000), wk =   0.0058594
        k(  143) = (   0.4375000   0.4375000   0.4375000), wk =   0.0014648
        k(  144) = (   0.4375000   0.4375000  -0.5000000), wk =   0.0029297
        k(  145) = (  -0.5000000  -0.5000000  -0.5000000), wk =   0.0002441

     Dense  grid:    47597 G-vectors     FFT dimensions: (  50,  50,  50)

     Smooth grid:     9189 G-vectors     FFT dimensions: (  30,  30,  30)

     Dynamical RAM for                 wfc:       0.03 MB

     Dynamical RAM for     wfc (w. buffer):       0.52 MB

     Dynamical RAM for           str. fact:       0.09 MB

     Dynamical RAM for           local pot:       0.00 MB

     Dynamical RAM for          nlocal pot:       0.04 MB

     Dynamical RAM for                qrad:       2.64 MB

     Dynamical RAM for          rho,v,vnew:       1.35 MB

     Dynamical RAM for               rhoin:       0.45 MB

     Dynamical RAM for            rho*nmix:       2.91 MB

     Dynamical RAM for           G-vectors:       0.35 MB

     Dynamical RAM for          h,s,v(r/c):       0.03 MB

     Dynamical RAM for          <psi|beta>:       0.00 MB

     Dynamical RAM for                 psi:       0.05 MB

     Dynamical RAM for                hpsi:       0.05 MB

     Dynamical RAM for                spsi:       0.05 MB

     Dynamical RAM for      wfcinit/wfcrot:       0.06 MB

     Dynamical RAM for           addusdens:       1.23 MB

     Dynamical RAM for          addusforce:       1.16 MB

     Dynamical RAM for         addusstress:       1.23 MB

     Estimated static dynamical RAM per process >       6.42 MB

     Estimated max dynamical RAM per process >      10.56 MB

     Estimated total dynamical RAM >    1002.46 MB
     Generating pointlists ...
     new r_m :   0.3572 (alat units)  1.9362 (a.u.) for type    1

     Initial potential from superposition of free atoms

     starting charge      15.9996, renormalised to      16.0000
     Starting wfcs are   10 randomized atomic wfcs +    2 random wfcs
     Checking if some PAW data can be deallocated... 

     total cpu time spent up to now is        1.1 secs

     per-process dynamical memory:   189.0 Mb

     Self-consistent Calculation

     iteration #  1     ecut=    90.00 Ry     beta= 0.20
     Davidson diagonalization with overlap

---- Real-time Memory Report at c_bands before calling an iterative solver
           765 MiB given to the printing process from OS
           184 MiB allocation reported by mallinfo(arena+hblkhd)
        467602 MiB available memory on the node where the printing process lives
------------------
     ethr =  1.00E-02,  avg # of iterations =  3.8

     total cpu time spent up to now is        1.5 secs

     total energy              =    -329.11163920 Ry
     estimated scf accuracy    <       0.27278392 Ry

     total magnetization       =     3.22 Bohr mag/cell
     absolute magnetization    =     3.25 Bohr mag/cell

     iteration #  2     ecut=    90.00 Ry     beta= 0.20
     Davidson diagonalization with overlap

---- Real-time Memory Report at c_bands before calling an iterative solver
           773 MiB given to the printing process from OS
           185 MiB allocation reported by mallinfo(arena+hblkhd)
        467468 MiB available memory on the node where the printing process lives
------------------
     ethr =  1.70E-03,  avg # of iterations =  1.0

     negative rho (up, down):  0.000E+00 6.697E-05

     total cpu time spent up to now is        1.8 secs

     total energy              =    -329.23413059 Ry
     estimated scf accuracy    <       0.18008579 Ry

     total magnetization       =     3.12 Bohr mag/cell
     absolute magnetization    =     3.17 Bohr mag/cell

     iteration #  3     ecut=    90.00 Ry     beta= 0.20
     Davidson diagonalization with overlap

---- Real-time Memory Report at c_bands before calling an iterative solver
           773 MiB given to the printing process from OS
           185 MiB allocation reported by mallinfo(arena+hblkhd)
        467467 MiB available memory on the node where the printing process lives
------------------
     ethr =  1.13E-03,  avg # of iterations =  1.0

     negative rho (up, down):  0.000E+00 2.818E-04

     total cpu time spent up to now is        2.1 secs

     total energy              =    -329.25878545 Ry
     estimated scf accuracy    <       0.02663460 Ry

     total magnetization       =     2.67 Bohr mag/cell
     absolute magnetization    =     2.81 Bohr mag/cell

     iteration #  4     ecut=    90.00 Ry     beta= 0.20
     Davidson diagonalization with overlap

---- Real-time Memory Report at c_bands before calling an iterative solver
           773 MiB given to the printing process from OS
           185 MiB allocation reported by mallinfo(arena+hblkhd)
        467469 MiB available memory on the node where the printing process lives
------------------
     ethr =  1.66E-04,  avg # of iterations =  1.8

     negative rho (up, down):  0.000E+00 1.593E-04

     total cpu time spent up to now is        2.5 secs

     total energy              =    -329.26313466 Ry
     estimated scf accuracy    <       0.00803734 Ry

     total magnetization       =     2.28 Bohr mag/cell
     absolute magnetization    =     2.45 Bohr mag/cell

     iteration #  5     ecut=    90.00 Ry     beta= 0.20
     Davidson diagonalization with overlap

---- Real-time Memory Report at c_bands before calling an iterative solver
           773 MiB given to the printing process from OS
           185 MiB allocation reported by mallinfo(arena+hblkhd)
        467466 MiB available memory on the node where the printing process lives
------------------
     ethr =  5.02E-05,  avg # of iterations =  3.1

     negative rho (up, down):  0.000E+00 5.565E-05

     total cpu time spent up to now is        2.9 secs

     total energy              =    -329.26011020 Ry
     estimated scf accuracy    <       0.04175284 Ry

     total magnetization       =     2.52 Bohr mag/cell
     absolute magnetization    =     2.64 Bohr mag/cell

     iteration #  6     ecut=    90.00 Ry     beta= 0.20
     Davidson diagonalization with overlap

---- Real-time Memory Report at c_bands before calling an iterative solver
           773 MiB given to the printing process from OS
           185 MiB allocation reported by mallinfo(arena+hblkhd)
        467464 MiB available memory on the node where the printing process lives
------------------
     ethr =  5.02E-05,  avg # of iterations =  2.2

     negative rho (up, down):  0.000E+00 4.615E-05

     total cpu time spent up to now is        3.3 secs

     total energy              =    -329.26956692 Ry
     estimated scf accuracy    <       0.00014981 Ry

     total magnetization       =     2.25 Bohr mag/cell
     absolute magnetization    =     2.39 Bohr mag/cell

     iteration #  7     ecut=    90.00 Ry     beta= 0.20
     Davidson diagonalization with overlap

---- Real-time Memory Report at c_bands before calling an iterative solver
           774 MiB given to the printing process from OS
           185 MiB allocation reported by mallinfo(arena+hblkhd)
        467464 MiB available memory on the node where the printing process lives
------------------
     ethr =  9.36E-07,  avg # of iterations =  4.2

     negative rho (up, down):  0.000E+00 4.809E-05

     total cpu time spent up to now is        3.7 secs

     total energy              =    -329.26797047 Ry
     estimated scf accuracy    <       0.00823125 Ry

     total magnetization       =     2.19 Bohr mag/cell
     absolute magnetization    =     2.33 Bohr mag/cell

     iteration #  8     ecut=    90.00 Ry     beta= 0.20
     Davidson diagonalization with overlap

---- Real-time Memory Report at c_bands before calling an iterative solver
           774 MiB given to the printing process from OS
           186 MiB allocation reported by mallinfo(arena+hblkhd)
        467460 MiB available memory on the node where the printing process lives
------------------
     ethr =  9.36E-07,  avg # of iterations =  3.4

     negative rho (up, down):  0.000E+00 4.402E-05

     total cpu time spent up to now is        4.1 secs

     total energy              =    -329.26931373 Ry
     estimated scf accuracy    <       0.00009477 Ry

     total magnetization       =     2.26 Bohr mag/cell
     absolute magnetization    =     2.39 Bohr mag/cell

     iteration #  9     ecut=    90.00 Ry     beta= 0.20
     Davidson diagonalization with overlap

---- Real-time Memory Report at c_bands before calling an iterative solver
           774 MiB given to the printing process from OS
           186 MiB allocation reported by mallinfo(arena+hblkhd)
        467460 MiB available memory on the node where the printing process lives
------------------
     ethr =  5.92E-07,  avg # of iterations =  1.7

     negative rho (up, down):  0.000E+00 4.506E-05

     total cpu time spent up to now is        4.4 secs

     total energy              =    -329.26934723 Ry
     estimated scf accuracy    <       0.00001977 Ry

     total magnetization       =     2.25 Bohr mag/cell
     absolute magnetization    =     2.38 Bohr mag/cell

     iteration # 10     ecut=    90.00 Ry     beta= 0.20
     Davidson diagonalization with overlap

---- Real-time Memory Report at c_bands before calling an iterative solver
           774 MiB given to the printing process from OS
           186 MiB allocation reported by mallinfo(arena+hblkhd)
        467459 MiB available memory on the node where the printing process lives
------------------
     ethr =  1.24E-07,  avg # of iterations =  1.0

     negative rho (up, down):  0.000E+00 4.347E-05

     total cpu time spent up to now is        4.8 secs

     total energy              =    -329.26933513 Ry
     estimated scf accuracy    <       0.00002993 Ry

     total magnetization       =     2.25 Bohr mag/cell
     absolute magnetization    =     2.38 Bohr mag/cell

     iteration # 11     ecut=    90.00 Ry     beta= 0.20
     Davidson diagonalization with overlap

---- Real-time Memory Report at c_bands before calling an iterative solver
           774 MiB given to the printing process from OS
           186 MiB allocation reported by mallinfo(arena+hblkhd)
        467459 MiB available memory on the node where the printing process lives
------------------
     ethr =  1.24E-07,  avg # of iterations =  1.5

     negative rho (up, down):  0.000E+00 4.411E-05

     total cpu time spent up to now is        5.1 secs

     total energy              =    -329.26935149 Ry
     estimated scf accuracy    <       0.00000403 Ry

     total magnetization       =     2.25 Bohr mag/cell
     absolute magnetization    =     2.37 Bohr mag/cell

     iteration # 12     ecut=    90.00 Ry     beta= 0.20
     Davidson diagonalization with overlap

---- Real-time Memory Report at c_bands before calling an iterative solver
           774 MiB given to the printing process from OS
           186 MiB allocation reported by mallinfo(arena+hblkhd)
        467459 MiB available memory on the node where the printing process lives
------------------
     ethr =  2.52E-08,  avg # of iterations =  1.1

     negative rho (up, down):  0.000E+00 4.440E-05

     total cpu time spent up to now is        5.4 secs

     total energy              =    -329.26935203 Ry
     estimated scf accuracy    <       0.00000059 Ry

     total magnetization       =     2.25 Bohr mag/cell
     absolute magnetization    =     2.37 Bohr mag/cell

     iteration # 13     ecut=    90.00 Ry     beta= 0.20
     Davidson diagonalization with overlap

---- Real-time Memory Report at c_bands before calling an iterative solver
           774 MiB given to the printing process from OS
           186 MiB allocation reported by mallinfo(arena+hblkhd)
        467458 MiB available memory on the node where the printing process lives
------------------
     ethr =  3.71E-09,  avg # of iterations =  1.5

     negative rho (up, down):  0.000E+00 4.433E-05

     total cpu time spent up to now is        5.8 secs

     total energy              =    -329.26935226 Ry
     estimated scf accuracy    <       0.00000006 Ry

     total magnetization       =     2.25 Bohr mag/cell
     absolute magnetization    =     2.37 Bohr mag/cell

     iteration # 14     ecut=    90.00 Ry     beta= 0.20
     Davidson diagonalization with overlap

---- Real-time Memory Report at c_bands before calling an iterative solver
           774 MiB given to the printing process from OS
           186 MiB allocation reported by mallinfo(arena+hblkhd)
        467458 MiB available memory on the node where the printing process lives
------------------
     ethr =  3.75E-10,  avg # of iterations =  1.9

     negative rho (up, down):  0.000E+00 4.437E-05

     total cpu time spent up to now is        6.1 secs

     total energy              =    -329.26935228 Ry
     estimated scf accuracy    <          9.9E-09 Ry

     total magnetization       =     2.25 Bohr mag/cell
     absolute magnetization    =     2.37 Bohr mag/cell

     iteration # 15     ecut=    90.00 Ry     beta= 0.20
     Davidson diagonalization with overlap

---- Real-time Memory Report at c_bands before calling an iterative solver
           774 MiB given to the printing process from OS
           186 MiB allocation reported by mallinfo(arena+hblkhd)
        467461 MiB available memory on the node where the printing process lives
------------------
     ethr =  6.21E-11,  avg # of iterations =  1.4

     negative rho (up, down):  0.000E+00 4.433E-05

     total cpu time spent up to now is        6.5 secs

     total energy              =    -329.26935229 Ry
     estimated scf accuracy    <          1.9E-09 Ry

     total magnetization       =     2.25 Bohr mag/cell
     absolute magnetization    =     2.37 Bohr mag/cell

     iteration # 16     ecut=    90.00 Ry     beta= 0.20
     Davidson diagonalization with overlap

---- Real-time Memory Report at c_bands before calling an iterative solver
           774 MiB given to the printing process from OS
           186 MiB allocation reported by mallinfo(arena+hblkhd)
        467458 MiB available memory on the node where the printing process lives
------------------
     ethr =  1.20E-11,  avg # of iterations =  2.5

     negative rho (up, down):  0.000E+00 4.433E-05

     total cpu time spent up to now is        6.8 secs

     total energy              =    -329.26935229 Ry
     estimated scf accuracy    <          5.4E-09 Ry

     total magnetization       =     2.25 Bohr mag/cell
     absolute magnetization    =     2.37 Bohr mag/cell

     iteration # 17     ecut=    90.00 Ry     beta= 0.20
     Davidson diagonalization with overlap

---- Real-time Memory Report at c_bands before calling an iterative solver
           774 MiB given to the printing process from OS
           186 MiB allocation reported by mallinfo(arena+hblkhd)
        467457 MiB available memory on the node where the printing process lives
------------------
     ethr =  1.20E-11,  avg # of iterations =  2.0

     negative rho (up, down):  0.000E+00 4.433E-05

     total cpu time spent up to now is        7.2 secs

     total energy              =    -329.26935229 Ry
     estimated scf accuracy    <          1.2E-10 Ry

     total magnetization       =     2.25 Bohr mag/cell
     absolute magnetization    =     2.37 Bohr mag/cell

     iteration # 18     ecut=    90.00 Ry     beta= 0.20
     Davidson diagonalization with overlap

---- Real-time Memory Report at c_bands before calling an iterative solver
           774 MiB given to the printing process from OS
           186 MiB allocation reported by mallinfo(arena+hblkhd)
        467461 MiB available memory on the node where the printing process lives
------------------
     ethr =  7.61E-13,  avg # of iterations =  2.0

     negative rho (up, down):  0.000E+00 4.432E-05

     Magnetic moment per site  (integrated on atomic sphere of radius R)
     atom   1 (R=0.357)  charge= 14.4214  magn=  2.3016

     total cpu time spent up to now is        7.5 secs

     End of self-consistent calculation

 ------ SPIN UP ------------


          k = 0.0000 0.0000 0.0000 (  1157 PWs)   bands (ev):

   -70.6028 -36.4276 -36.4276 -36.4276   9.1488  15.2254  15.2254  15.2254
    16.3680  16.3680  41.6343  41.6343

     occupation numbers 
     1.0000   1.0000   1.0000   1.0000   1.0000   1.0000   1.0000   1.0000
     1.0000   1.0000   0.0000   0.0000

          k = 0.0000-0.0625 0.0625 (  1145 PWs)   bands (ev):

   -70.6003 -36.4415 -36.4322 -36.4275   9.3067  15.1833  15.2222  15.3083
    16.3263  16.3714  40.6443  41.4200

     occupation numbers 
     1.0000   1.0000   1.0000   1.0000   1.0000   1.0000   1.0000   1.0000
     1.0000   1.0000   0.0000   0.0000

          k = 0.0000-0.1250 0.1250 (  1141 PWs)   bands (ev):

   -70.5930 -36.4814 -36.4456 -36.4274   9.7682  15.0649  15.1961  15.5491
    16.2375  16.3822  38.3914  40.6295

     occupation numbers 
     1.0000   1.0000   1.0000   1.0000   1.0000   1.0000   1.0000   1.0000
     1.0000   1.0000   0.0000   0.0000

          k = 0.0000-0.1875 0.1875 (  1139 PWs)   bands (ev):

   -70.5822 -36.5407 -36.4655 -36.4273  10.4905  14.8913  15.1252  15.9241
    16.1858  16.4025  35.6444  39.3769

     occupation numbers 
     1.0000   1.0000   1.0000   1.0000   1.0000   1.0000   1.0000   1.0000
     1.0000   1.0000   0.0000   0.0000

          k = 0.0000-0.2500 0.2500 (  1134 PWs)   bands (ev):

   -70.5693 -36.6102 -36.4890 -36.4272  11.3683  14.6917  15.0823  16.2195
    16.3924  16.4327  32.7696  38.0522

     occupation numbers 
     1.0000   1.0000   1.0000   1.0000   1.0000   1.0000   1.0000   1.0000
     1.0000   1.0000   0.0000   0.0000

          k = 0.0000-0.3125 0.3125 (  1144 PWs)   bands (ev):

   -70.5565 -36.6792 -36.5125 -36.4271  12.1613  14.4975  15.3193  16.3187
    16.4699  16.8941  29.9653  36.8892

     occupation numbers 
     1.0000   1.0000   1.0000   1.0000   1.0000   1.0000   1.0000   1.0000
     1.0000   1.0000   0.0000   0.0000

          k = 0.0000-0.3750 0.3750 (  1148 PWs)   bands (ev):

   -70.5455 -36.7374 -36.5323 -36.4271  12.5786  14.3370  16.0337  16.5072
    16.5114  17.3506  27.3968  35.9990

     occupation numbers 
     1.0000   1.0000   1.0000   1.0000   1.0000   1.0000   1.0000   1.0000
     1.0000   0.9249   0.0000   0.0000

          k = 0.0000-0.4375 0.4375 (  1148 PWs)   bands (ev):

   -70.5382 -36.7761 -36.5454 -36.4270  12.6834  14.2316  16.3870  16.5353
    17.3485  17.6748  25.3396  35.4424

     occupation numbers 
     1.0000   1.0000   1.0000   1.0000   1.0000   1.0000   1.0000   1.0000
     0.9331   0.0022   0.0000   0.0000

          k = 0.0000 0.5000-0.5000 (  1148 PWs)   bands (ev):

   -70.5357 -36.7897 -36.5501 -36.4270  12.6932  14.1950  16.4329  16.5457
    17.7927  17.9263  24.4496  35.2532

     occupation numbers 
     1.0000   1.0000   1.0000   1.0000   1.0000   1.0000   1.0000   1.0000
     0.0000   0.0000   0.0000   0.0000

          k =-0.0625-0.0625 0.1250 (  1139 PWs)   bands (ev):

   -70.5954 -36.4691 -36.4371 -36.4310   9.6166  15.1292  15.1700  15.4825
    16.2534  16.3851  39.3315  40.2230

     occupation numbers 
     1.0000   1.0000   1.0000   1.0000   1.0000   1.0000   1.0000   1.0000
     1.0000   1.0000   0.0000   0.0000

          k =-0.0625-0.1250 0.1875 (  1146 PWs)   bands (ev):

   -70.5863 -36.5181 -36.4529 -36.4323  10.2114  14.9872  15.1022  15.8056
    16.1676  16.4144  37.0393  38.8883

     occupation numbers 
     1.0000   1.0000   1.0000   1.0000   1.0000   1.0000   1.0000   1.0000
     1.0000   1.0000   0.0000   0.0000

          k =-0.0625-0.1875 0.2500 (  1141 PWs)   bands (ev):

   -70.5745 -36.5809 -36.4759 -36.4326  11.0246  14.7965  15.0140  16.1468
    16.2524  16.4533  34.2640  37.6555

     occupation numbers 
     1.0000   1.0000   1.0000   1.0000   1.0000   1.0000   1.0000   1.0000
     1.0000   1.0000   0.0000   0.0000

          k =-0.0625-0.2500 0.3125 (  1136 PWs)   bands (ev):

   -70.5616 -36.6481 -36.5013 -36.4326  11.8953  14.5970  15.0359  16.2193
    16.4958  16.7768  31.4186  36.5368

     occupation numbers 
     1.0000   1.0000   1.0000   1.0000   1.0000   1.0000   1.0000   1.0000
     1.0000   1.0000   0.0000   0.0000

          k =-0.0625-0.3125 0.3750 (  1140 PWs)   bands (ev):

   -70.5497 -36.7097 -36.5247 -36.4326  12.5161  14.4201  15.4272  16.3459
    16.5634  17.3405  28.7069  35.6092

     occupation numbers 
     1.0000   1.0000   1.0000   1.0000   1.0000   1.0000   1.0000   1.0000
     1.0000   0.9615   0.0000   0.0000

          k =-0.0625-0.3750 0.4375 (  1145 PWs)   bands (ev):

   -70.5406 -36.7566 -36.5427 -36.4326  12.7374  14.2890  16.0360  16.4407
    16.8242  17.9543  26.3289  34.9441

     occupation numbers 
     1.0000   1.0000   1.0000   1.0000   1.0000   1.0000   1.0000   1.0000
     1.0000   0.0000   0.0000   0.0000

          k =-0.0625 0.5625-0.5000 (  1144 PWs)   bands (ev):

   -70.5357 -36.7818 -36.5524 -36.4326  12.7694  14.2193  16.3094  16.4346
    17.2264  18.6018  24.7130  34.5959

     occupation numbers 
     1.0000   1.0000   1.0000   1.0000   1.0000   1.0000   1.0000   1.0000
     1.0714   0.0000   0.0000   0.0000

          k =-0.1250-0.1250 0.2500 (  1146 PWs)   bands (ev):

   -70.5763 -36.5700 -36.4661 -36.4403  10.9058  14.8882  14.9230  16.1048
    16.2235  16.4761  35.4578  36.5695

     occupation numbers 
     1.0000   1.0000   1.0000   1.0000   1.0000   1.0000   1.0000   1.0000
     1.0000   1.0000   0.0000   0.0000

          k =-0.1250-0.1875 0.3125 (  1140 PWs)   bands (ev):

   -70.5644 -36.6279 -36.4903 -36.4439  11.7529  14.6928  14.8229  16.1186
    16.5263  16.7841  32.9992  35.0214

     occupation numbers 
     1.0000   1.0000   1.0000   1.0000   1.0000   1.0000   1.0000   1.0000
     1.0000   1.0000   0.0000   0.0000

          k =-0.1250-0.2500 0.3750 (  1145 PWs)   bands (ev):

   -70.5525 -36.6839 -36.5182 -36.4453  12.5243  14.5001  14.9058  16.2120
    16.5950  17.4430  30.2425  33.9808

     occupation numbers 
     1.0000   1.0000   1.0000   1.0000   1.0000   1.0000   1.0000   1.0000
     1.0000   0.4539   0.0000   0.0000

          k =-0.1250-0.3125 0.4375 (  1144 PWs)   bands (ev):

   -70.5424 -36.7303 -36.5431 -36.4459  12.9146  14.3606  15.2984  16.3374
    16.7090  18.2436  27.6498  33.2051

     occupation numbers 
     1.0000   1.0000   1.0000   1.0000   1.0000   1.0000   1.0000   1.0000
     1.0000   0.0000   0.0000   0.0000

          k =-0.1250 0.6250-0.5000 (  1150 PWs)   bands (ev):

   -70.5357 -36.7610 -36.5601 -36.4463  12.9894  14.2747  15.7044  16.3988
    16.9274  19.1895  25.5066  32.7109

     occupation numbers 
     1.0000   1.0000   1.0000   1.0000   1.0000   1.0000   1.0000   1.0000
     1.0000   0.0000   0.0000   0.0000

          k =-0.1250 0.5625-0.4375 (  1145 PWs)   bands (ev):

   -70.5333 -36.7717 -36.5661 -36.4464  12.9883  14.2453  15.8456  16.4046
    17.0527  19.7643  24.5220  32.5398

     occupation numbers 
     1.0000   1.0000   1.0000   1.0000   1.0000   1.0000   1.0000   1.0000
     1.0019   0.0000   0.0000   0.0000

          k =-0.1875-0.1875 0.3750 (  1140 PWs)   bands (ev):

   -70.5535 -36.6730 -36.5146 -36.4528  12.5414  14.5128  14.7357  16.1500
    16.6056  17.4889  31.6520  32.4527

     occupation numbers 
     1.0000   1.0000   1.0000   1.0000   1.0000   1.0000   1.0000   1.0000
     1.0000   0.2417   0.0000   0.0000

          k =-0.1875-0.2500 0.4375 (  1145 PWs)   bands (ev):

   -70.5434 -36.7102 -36.5450 -36.4574  13.1250  14.3575  14.8337  16.2460
    16.6828  18.3972  29.2393  31.2459

     occupation numbers 
     1.0000   1.0000   1.0000   1.0000   1.0000   1.0000   1.0000   1.0000
     1.0000   0.0000   0.0000   0.0000

          k =-0.1875 0.6875-0.5000 (  1148 PWs)   bands (ev):

   -70.5357 -36.7359 -36.5723 -36.4596  13.3124  14.2963  15.0942  16.3577
    16.7923  19.5359  26.7904  30.5874

     occupation numbers 
     1.0000   1.0000   1.0000   1.0000   1.0000   1.0000   1.0000   1.0000
     1.0000   0.0000   0.0000   0.0000

          k =-0.1875 0.6250-0.4375 (  1146 PWs)   bands (ev):

   -70.5315 -36.7487 -36.5883 -36.4605  13.3144  14.2758  15.2869  16.4132
    16.9093  20.6869  24.9477  30.2488

     occupation numbers 
     1.0000   1.0000   1.0000   1.0000   1.0000   1.0000   1.0000   1.0000
     1.0000   0.0000   0.0000   0.0000

          k =-0.2500 0.7500-0.5000 (  1157 PWs)   bands (ev):

   -70.5357 -36.7234 -36.5797 -36.4649  13.5354  14.2328  14.8449  16.3365
    16.7490  19.6463  28.1524  28.9350

     occupation numbers 
     1.0000   1.0000   1.0000   1.0000   1.0000   1.0000   1.0000   1.0000
     1.0000   0.0000   0.0000   0.0000

          k =-0.2500 0.6875-0.4375 (  1152 PWs)   bands (ev):

   -70.5305 -36.7245 -36.6118 -36.4685  13.6630  14.2453  14.8626  16.4466
    16.7967  21.1308  26.0710  28.1821

     occupation numbers 
     1.0000   1.0000   1.0000   1.0000   1.0000   1.0000   1.0000   1.0000
     1.0000   0.0000   0.0000   0.0000

          k =-0.2500 0.6250-0.3750 (  1152 PWs)   bands (ev):

   -70.5287 -36.7222 -36.6259 -36.4696  13.6656  14.2850  14.8641  16.4951
    16.8174  22.1827  24.7468  27.9945

     occupation numbers 
     1.0000   1.0000   1.0000   1.0000   1.0000   1.0000   1.0000   1.0000
     1.0000   0.0000   0.0000   0.0000

          k =-0.3125 0.6875-0.3750 (  1158 PWs)   bands (ev):

   -70.5277 -36.6991 -36.6533 -36.4726  13.8676  14.3156  14.6085  16.5781
    16.7311  22.9172  24.9912  26.6900

     occupation numbers 
     1.0000   1.0000   1.0000   1.0000   1.0000   1.0000   1.0000   1.0000
     1.0000   0.0000   0.0000   0.0000

          k = 0.0000 0.0000 0.1250 (  1133 PWs)   bands (ev):

   -70.5978 -36.4458 -36.4369 -36.4369   9.4629  15.2247  15.2247  15.3095
    16.2316  16.4214  40.0169  41.2961

     occupation numbers 
     1.0000   1.0000   1.0000   1.0000   1.0000   1.0000   1.0000   1.0000
     1.0000   1.0000   0.0000   0.0000

          k = 0.0000-0.0625 0.1875 (  1137 PWs)   bands (ev):

   -70.5906 -36.4824 -36.4504 -36.4393   9.9193  15.1338  15.2127  15.5270
    16.0904  16.4689  38.2915  40.3338

     occupation numbers 
     1.0000   1.0000   1.0000   1.0000   1.0000   1.0000   1.0000   1.0000
     1.0000   1.0000   0.0000   0.0000

          k = 0.0000-0.1250 0.2500 (  1141 PWs)   bands (ev):

   -70.5798 -36.5406 -36.4704 -36.4390  10.6323  14.9675  15.1426  15.9015
    16.0103  16.5157  35.7243  38.9834

     occupation numbers 
     1.0000   1.0000   1.0000   1.0000   1.0000   1.0000   1.0000   1.0000
     1.0000   1.0000   0.0000   0.0000

          k = 0.0000-0.1875 0.3125 (  1138 PWs)   bands (ev):

   -70.5671 -36.6091 -36.4941 -36.4385  11.4963  14.7741  15.0537  16.0648
    16.3718  16.5732  32.8795  37.7206

     occupation numbers 
     1.0000   1.0000   1.0000   1.0000   1.0000   1.0000   1.0000   1.0000
     1.0000   1.0000   0.0000   0.0000

          k = 0.0000-0.2500 0.3750 (  1140 PWs)   bands (ev):

   -70.5544 -36.6771 -36.5176 -36.4380  12.2749  14.5854  15.1557  16.2274
    16.6875  16.8766  30.0729  36.6410

     occupation numbers 
     1.0000   1.0000   1.0000   1.0000   1.0000   1.0000   1.0000   1.0000
     1.0000   1.0000   0.0000   0.0000

          k = 0.0000-0.3125 0.4375 (  1146 PWs)   bands (ev):

   -70.5436 -36.7344 -36.5375 -36.4375  12.6812  14.4290  15.5495  16.3653
    17.1130  17.3366  27.4882  35.8160

     occupation numbers 
     1.0000   1.0000   1.0000   1.0000   1.0000   1.0000   1.0000   1.0000
     1.0104   0.9744   0.0000   0.0000

          k = 0.0000-0.3750 0.5000 (  1145 PWs)   bands (ev):

   -70.5363 -36.7725 -36.5508 -36.4372  12.7776  14.3263  15.8929  16.3790
    17.6637  18.0083  25.3948  35.2993

     occupation numbers 
     1.0000   1.0000   1.0000   1.0000   1.0000   1.0000   1.0000   1.0000
     0.0032   0.0000   0.0000   0.0000

          k = 0.0000 0.5625-0.4375 (  1148 PWs)   bands (ev):

   -70.5338 -36.7859 -36.5554 -36.4371  12.7843  14.2905  16.0157  16.3592
    17.7828  18.5729  24.4708  35.1234

     occupation numbers 
     1.0000   1.0000   1.0000   1.0000   1.0000   1.0000   1.0000   1.0000
     0.0000   0.0000   0.0000   0.0000

          k =-0.0625-0.0625 0.2500 (  1143 PWs)   bands (ev):

   -70.5817 -36.5228 -36.4646 -36.4489  10.4982  15.0948  15.1404  15.7863
    15.9339  16.5441  36.8027  38.2658

     occupation numbers 
     1.0000   1.0000   1.0000   1.0000   1.0000   1.0000   1.0000   1.0000
     1.0000   1.0000   0.0000   0.0000

          k =-0.0625-0.1250 0.3125 (  1142 PWs)   bands (ev):

   -70.5701 -36.5815 -36.4868 -36.4516  11.2849  14.9337  15.0273  15.9008
    16.2135  16.6282  34.4345  36.5656

     occupation numbers 
     1.0000   1.0000   1.0000   1.0000   1.0000   1.0000   1.0000   1.0000
     1.0000   1.0000   0.0000   0.0000

          k =-0.0625-0.1875 0.3750 (  1141 PWs)   bands (ev):

   -70.5575 -36.6457 -36.5123 -36.4517  12.1216  14.7304  14.9530  16.0240
    16.6275  16.8580  31.6348  35.4002

     occupation numbers 
     1.0000   1.0000   1.0000   1.0000   1.0000   1.0000   1.0000   1.0000
     1.0000   1.0000   0.0000   0.0000

          k =-0.0625-0.2500 0.4375 (  1144 PWs)   bands (ev):

   -70.5458 -36.7050 -36.5361 -36.4513  12.7168  14.5696  15.0702  16.2113
    16.8735  17.4712  28.9097  34.4864

     occupation numbers 
     1.0000   1.0000   1.0000   1.0000   1.0000   1.0000   1.0000   1.0000
     1.0000   0.3153   0.0000   0.0000

          k =-0.0625-0.3125 0.5000 (  1143 PWs)   bands (ev):

   -70.5369 -36.7502 -36.5544 -36.4508  12.9212  14.4567  15.3557  16.3001
    17.2525  18.3303  26.4855  33.8271

     occupation numbers 
     1.0000   1.0000   1.0000   1.0000   1.0000   1.0000   1.0000   1.0000
     1.0824   0.0000   0.0000   0.0000

          k =-0.0625 0.6250-0.4375 (  1145 PWs)   bands (ev):

   -70.5320 -36.7746 -36.5642 -36.4506  12.9421  14.3962  15.5555  16.3003
    17.5254  19.2571  24.7826  33.4758

     occupation numbers 
     1.0000   1.0000   1.0000   1.0000   1.0000   1.0000   1.0000   1.0000
     0.1266   0.0000   0.0000   0.0000

          k =-0.1250 0.1250 0.1250 (  1142 PWs)   bands (ev):

   -70.5886 -36.5121 -36.4374 -36.4374  10.0669  15.0270  15.0270  15.7991
    16.3052  16.3052  38.1937  38.1937

     occupation numbers 
     1.0000   1.0000   1.0000   1.0000   1.0000   1.0000   1.0000   1.0000
     1.0000   1.0000   0.0000   0.0000

          k =-0.1250-0.1250 0.3750 (  1134 PWs)   bands (ev):

   -70.5586 -36.6318 -36.5097 -36.4602  12.0691  14.7355  14.9514  15.9069
    16.5862  16.8996  33.0136  33.9176

     occupation numbers 
     1.0000   1.0000   1.0000   1.0000   1.0000   1.0000   1.0000   1.0000
     1.0000   1.0000   0.0000   0.0000

          k =-0.1250-0.1875 0.4375 (  1139 PWs)   bands (ev):

   -70.5470 -36.6819 -36.5378 -36.4636  12.7822  14.5187  14.9363  16.0368
    16.7505  17.5983  30.5422  32.5554

     occupation numbers 
     1.0000   1.0000   1.0000   1.0000   1.0000   1.0000   1.0000   1.0000
     1.0000   0.0233   0.0000   0.0000

          k =-0.1250-0.2500 0.5000 (  1143 PWs)   bands (ev):

   -70.5373 -36.7239 -36.5637 -36.4646  13.1592  14.4443  14.9819  16.2020
    16.9512  18.5855  27.9310  31.7487

     occupation numbers 
     1.0000   1.0000   1.0000   1.0000   1.0000   1.0000   1.0000   1.0000
     1.0000   0.0000   0.0000   0.0000

          k =-0.1250 0.6875-0.4375 (  1152 PWs)   bands (ev):

   -70.5307 -36.7516 -36.5816 -36.4648  13.2239  14.4495  15.0801  16.2815
    17.1988  19.7921  25.6976  31.2413

     occupation numbers 
     1.0000   1.0000   1.0000   1.0000   1.0000   1.0000   1.0000   1.0000
     1.0531   0.0000   0.0000   0.0000

          k =-0.1250 0.6250-0.3750 (  1154 PWs)   bands (ev):

   -70.5284 -36.7613 -36.5880 -36.4648  13.2162  14.4520  15.1296  16.2964
    17.3108  20.5459  24.6011  31.0651

     occupation numbers 
     1.0000   1.0000   1.0000   1.0000   1.0000   1.0000   1.0000   1.0000
     1.0402   0.0000   0.0000   0.0000

          k =-0.1875 0.1875 0.1250 (  1145 PWs)   bands (ev):

   -70.5785 -36.5669 -36.4562 -36.4379  10.7740  14.8359  14.9101  16.2314
    16.2515  16.3653  35.6941  37.0237

     occupation numbers 
     1.0000   1.0000   1.0000   1.0000   1.0000   1.0000   1.0000   1.0000
     1.0000   1.0000   0.0000   0.0000

          k =-0.1875-0.1875 0.5000 (  1143 PWs)   bands (ev):

   -70.5374 -36.7108 -36.5702 -36.4700  13.3179  14.2856  14.9457  16.1468
    16.8535  18.6704  29.3870  30.0650

     occupation numbers 
[...]

     occupation numbers 
     1.0000   1.0000   1.0000   1.0000   1.0000   1.0000   1.0798   0.0000
     0.0000   0.0000   0.0000   0.0000

          k =-0.0625-0.1875 0.6250 (  1150 PWs)   bands (ev):

   -67.8034 -34.0940 -33.9585 -33.8766  14.8162  15.9684  17.1191  18.2711
    19.5855  21.5530  28.2654  31.7334

     occupation numbers 
     1.0000   1.0000   1.0000   1.0000   1.0000   1.0000   1.0120   0.0000
     0.0000   0.0000   0.0000   0.0000

          k =-0.0625 0.7500-0.3125 (  1156 PWs)   bands (ev):

   -67.7986 -34.1163 -33.9704 -33.8752  15.0422  15.8978  17.0261  18.3434
    19.8401  22.7209  26.3759  31.3205

     occupation numbers 
     1.0000   1.0000   1.0000   1.0000   1.0000   1.0000   1.0008   0.0000
     0.0000   0.0000   0.0000   0.0000

          k =-0.1250-0.1250 0.6250 (  1158 PWs)   bands (ev):

   -67.8027 -34.0777 -33.9729 -33.8823  14.8523  15.8916  17.1798  18.3435
    19.4080  21.5658  29.7099  30.0765

     occupation numbers 
     1.0000   1.0000   1.0000   1.0000   1.0000   1.0000   1.0403   0.0000
     0.0000   0.0000   0.0000   0.0000

          k =-0.1250 0.8125-0.3125 (  1152 PWs)   bands (ev):

   -67.7963 -34.0929 -34.0007 -33.8823  15.2235  15.6909  17.0093  18.6097
    19.5665  22.9440  27.5416  29.3646

     occupation numbers 
     1.0000   1.0000   1.0000   1.0000   1.0000   1.0000   1.0004   0.0000
     0.0000   0.0000   0.0000   0.0000

          k =-0.1250 0.7500-0.2500 (  1157 PWs)   bands (ev):

   -67.7941 -34.0978 -34.0111 -33.8820  15.3197  15.6730  16.9168  18.7000
    19.6398  24.0283  26.1528  29.1554

     occupation numbers 
     1.0000   1.0000   1.0000   1.0000   1.0000   1.0000   1.0000   0.0000
     0.0000   0.0000   0.0000   0.0000

          k =-0.1875 0.8125-0.2500 (  1154 PWs)   bands (ev):

   -67.7925 -34.0777 -34.0400 -33.8833  15.4945  15.5395  16.8229  19.0144
    19.4111  24.6288  26.6207  27.7126

     occupation numbers 
     1.0000   1.0000   1.0000   1.0000   1.0000   1.0000   1.0000   0.0000
     0.0000   0.0000   0.0000   0.0000

          k = 0.6250-0.6250 0.3750 (  1157 PWs)   bands (ev):

   -67.8202 -34.0783 -33.8803 -33.8803  15.1815  15.7744  15.7744  19.3787
    19.3787  22.2374  29.6264  29.6264

     occupation numbers 
     1.0000   1.0000   1.0000   1.0000   1.0000   1.0000   1.0000   0.0000
     0.0000   0.0000   0.0000   0.0000

          k = 0.5625-0.5625 0.3750 (  1155 PWs)   bands (ev):

   -67.8165 -34.0570 -33.9271 -33.8840  15.4693  15.7075  15.9024  19.4004
    19.4578  23.5120  27.6057  29.2144

     occupation numbers 
     1.0000   1.0000   1.0000   1.0000   1.0000   1.0000   1.0000   0.0000
     0.0000   0.0000   0.0000   0.0000

          k = 0.5000-0.5000 0.3750 (  1154 PWs)   bands (ev):

   -67.8152 -34.0401 -33.9530 -33.8854  15.4611  15.6864  16.0660  19.4106
    19.4828  24.5284  26.2674  29.0756

     occupation numbers 
     1.0000   1.0000   1.0000   1.0000   1.0000   1.0000   1.0000   0.0000
     0.0000   0.0000   0.0000   0.0000

          k = 0.5000-0.5625 0.4375 (  1150 PWs)   bands (ev):

   -67.8149 -34.0158 -33.9599 -33.9064  15.6010  15.7593  15.8717  19.4554
    19.4770  25.0488  26.8679  27.7908

     occupation numbers 
     1.0000   1.0000   1.0000   1.0000   1.0000   1.0000   1.0000   0.0000
     0.0000   0.0000   0.0000   0.0000

          k = 0.0000 0.0000 0.5000 (  1136 PWs)   bands (ev):

   -67.8243 -33.9743 -33.9052 -33.9052  13.4566  16.8434  17.5506  17.5506
    18.4561  20.0385  34.6437  34.6437

     occupation numbers 
     1.0000   1.0000   1.0000   1.0000   1.0000   1.0000   0.0750   0.0750
     0.0000   0.0000   0.0000   0.0000

          k = 0.0000-0.0625 0.5625 (  1156 PWs)   bands (ev):

   -67.8121 -34.0174 -33.9329 -33.9173  14.1542  16.3594  17.6204  17.8403
    18.8573  20.4401  32.2364  33.3616

     occupation numbers 
     1.0000   1.0000   1.0000   1.0000   1.0000   1.0000   0.0126   0.0000
     0.0000   0.0000   0.0000   0.0000

          k = 0.0000-0.1250 0.6250 (  1153 PWs)   bands (ev):

   -67.8017 -34.0657 -33.9563 -33.9153  14.7049  15.9496  17.5688  18.1045
    19.3721  21.2416  29.6718  32.3155

     occupation numbers 
     1.0000   1.0000   1.0000   1.0000   1.0000   1.0000   0.0493   0.0000
     0.0000   0.0000   0.0000   0.0000

          k = 0.0000-0.1875 0.6875 (  1151 PWs)   bands (ev):

   -67.7948 -34.0996 -33.9719 -33.9121  15.0303  15.7050  17.5129  18.2165
    19.7807  22.4871  27.3774  31.6107

     occupation numbers 
     1.0000   1.0000   1.0000   1.0000   1.0000   1.0000   0.1602   0.0000
     0.0000   0.0000   0.0000   0.0000

          k = 0.0000 0.7500-0.2500 (  1152 PWs)   bands (ev):

   -67.7924 -34.1117 -33.9774 -33.9109  15.1239  15.6382  17.4912  18.2373
    19.9366  23.4405  26.0857  31.3588

     occupation numbers 
     1.0000   1.0000   1.0000   1.0000   1.0000   1.0000   0.2328   0.0000
     0.0000   0.0000   0.0000   0.0000

          k =-0.0625-0.0625 0.6250 (  1156 PWs)   bands (ev):

   -67.8012 -34.0462 -33.9643 -33.9296  14.6595  15.9540  17.7268  18.1347
    19.1836  21.1532  31.1206  31.3042

     occupation numbers 
     1.0000   1.0000   1.0000   1.0000   1.0000   1.0000   0.0003   0.0000
     0.0000   0.0000   0.0000   0.0000

          k =-0.0625-0.1250 0.6875 (  1151 PWs)   bands (ev):

   -67.7928 -34.0766 -33.9895 -33.9293  15.0046  15.6254  17.6700  18.4278
    19.5419  22.3428  28.7855  30.4081

     occupation numbers 
     1.0000   1.0000   1.0000   1.0000   1.0000   1.0000   0.0026   0.0000
     0.0000   0.0000   0.0000   0.0000

          k =-0.0625 0.8125-0.2500 (  1153 PWs)   bands (ev):

   -67.7882 -34.0947 -34.0028 -33.9277  15.1797  15.4482  17.6115  18.5577
    19.7886  23.8199  26.7002  29.9471

     occupation numbers 
     1.0000   1.0000   1.0000   1.0000   1.0000   1.0000   0.0162   0.0000
     0.0000   0.0000   0.0000   0.0000

          k =-0.1250 0.8750-0.2500 (  1154 PWs)   bands (ev):

   -67.7868 -34.0794 -34.0242 -33.9305  15.1913  15.3910  17.5822  18.8796
    19.5925  23.8641  27.9159  28.4236

     occupation numbers 
     1.0000   1.0000   1.0000   1.0000   1.0000   1.0000   0.0355   0.0000
     0.0000   0.0000   0.0000   0.0000

          k =-0.1250 0.8125-0.1875 (  1160 PWs)   bands (ev):

   -67.7846 -34.0768 -34.0408 -33.9302  15.2640  15.3002  17.5345  19.0908
    19.5773  25.2682  26.4177  28.0445

     occupation numbers 
     1.0000   1.0000   1.0000   1.0000   1.0000   1.0000   0.1055   0.0000
     0.0000   0.0000   0.0000   0.0000

          k = 0.5000-0.5000 0.5000 (  1160 PWs)   bands (ev):

   -67.8145 -33.9621 -33.9621 -33.9621  15.7564  15.7564  15.7564  19.4895
    19.4895  26.7154  26.7154  26.7154

     occupation numbers 
     1.0000   1.0000   1.0000   1.0000   1.0000   1.0000   1.0000   0.0000
     0.0000   0.0000   0.0000   0.0000

          k = 0.0000 0.0000 0.6250 (  1152 PWs)   bands (ev):

   -67.8006 -34.0201 -33.9613 -33.9613  14.5890  15.9835  18.0546  18.0546
    18.9585  21.0249  31.9963  31.9963

     occupation numbers 
     1.0000   1.0000   1.0000   1.0000   1.0000   1.0000   0.0000   0.0000
     0.0000   0.0000   0.0000   0.0000

          k = 0.0000-0.0625 0.6875 (  1149 PWs)   bands (ev):

   -67.7908 -34.0499 -33.9853 -33.9708  14.8703  15.6077  18.2168  18.3508
    19.3260  22.0114  30.0790  30.8775

     occupation numbers 
     1.0000   1.0000   1.0000   1.0000   1.0000   1.0000   0.0000   0.0000
     0.0000   0.0000   0.0000   0.0000

          k = 0.0000-0.1250 0.7500 (  1152 PWs)   bands (ev):

   -67.7843 -34.0790 -34.0013 -33.9678  15.0342  15.3348  18.2307  18.5270
    19.7199  23.4465  27.8501  30.1172

     occupation numbers 
     1.0000   1.0000   1.0000   1.0000   1.0000   1.0000   0.0000   0.0000
     0.0000   0.0000   0.0000   0.0000

          k = 0.0000 0.8125-0.1875 (  1156 PWs)   bands (ev):

   -67.7820 -34.0898 -34.0070 -33.9661  15.1143  15.2106  18.2261  18.5778
    19.8811  24.7006  26.3250  29.8432

     occupation numbers 
     1.0000   1.0000   1.0000   1.0000   1.0000   1.0000   0.0000   0.0000
     0.0000   0.0000   0.0000   0.0000

          k =-0.0625-0.0625 0.7500 (  1154 PWs)   bands (ev):

   -67.7829 -34.0639 -34.0136 -33.9787  14.9713  15.3065  18.3226  18.7852
    19.5583  23.2894  29.1037  29.2577

     occupation numbers 
     1.0000   1.0000   1.0000   1.0000   1.0000   1.0000   0.0000   0.0000
     0.0000   0.0000   0.0000   0.0000

          k =-0.0625 0.8750-0.1875 (  1155 PWs)   bands (ev):

   -67.7786 -34.0751 -34.0306 -33.9775  15.0310  15.1183  18.3196  19.0479
    19.7423  24.9048  27.1648  28.6824

     occupation numbers 
     1.0000   1.0000   1.0000   1.0000   1.0000   1.0000   0.0000   0.0000
     0.0000   0.0000   0.0000   0.0000

          k =-0.1250 0.8750-0.1250 (  1156 PWs)   bands (ev):

   -67.7766 -34.0590 -34.0590 -33.9776  15.0338  15.0338  18.3085  19.5176
    19.5176  26.4923  26.4923  27.4286

     occupation numbers 
     1.0000   1.0000   1.0000   1.0000   1.0000   1.0000   0.0000   0.0000
     0.0000   0.0000   0.0000   0.0000

          k = 0.0000 0.0000 0.7500 (  1144 PWs)   bands (ev):

   -67.7816 -34.0442 -34.0099 -34.0099  14.8922  15.2794  18.7512  18.7512
    19.3932  23.0731  29.6845  29.6845

     occupation numbers 
     1.0000   1.0000   1.0000   1.0000   1.0000   1.0000   0.0000   0.0000
     0.0000   0.0000   0.0000   0.0000

          k = 0.0000-0.0625 0.8125 (  1155 PWs)   bands (ev):

   -67.7754 -34.0617 -34.0262 -34.0145  14.8831  15.0365  18.9421  19.0429
    19.6740  24.5017  28.2014  28.8605

     occupation numbers 
     1.0000   1.0000   1.0000   1.0000   1.0000   1.0000   0.0000   0.0000
     0.0000   0.0000   0.0000   0.0000

          k = 0.0000 0.8750-0.1250 (  1154 PWs)   bands (ev):

   -67.7732 -34.0712 -34.0320 -34.0127  14.9063  14.9196  18.9658  19.1413
    19.8343  25.9068  26.6921  28.5596

     occupation numbers 
     1.0000   1.0000   1.0000   1.0000   1.0000   1.0000   0.0000   0.0000
     0.0000   0.0000   0.0000   0.0000

          k =-0.0625 0.9375-0.1250 (  1156 PWs)   bands (ev):

   -67.7713 -34.0621 -34.0470 -34.0182  14.8346  14.8749  19.0411  19.4756
    19.7403  25.9727  27.5252  27.7389

     occupation numbers 
     1.0000   1.0000   1.0000   1.0000   1.0000   1.0000   0.0000   0.0000
     0.0000   0.0000   0.0000   0.0000

          k = 0.0000 0.0000 0.8750 (  1152 PWs)   bands (ev):

   -67.7694 -34.0528 -34.0428 -34.0428  14.7599  14.8221  19.4605  19.4605
    19.6880  25.7146  27.9766  27.9766

     occupation numbers 
     1.0000   1.0000   1.0000   1.0000   1.0000   1.0000   0.0000   0.0000
     0.0000   0.0000   0.0000   0.0000

          k = 0.0000 0.9375-0.0625 (  1154 PWs)   bands (ev):

   -67.7673 -34.0588 -34.0486 -34.0436  14.7245  14.7352  19.5568  19.6135
    19.8032  26.8915  27.1055  27.6484

     occupation numbers 
     1.0000   1.0000   1.0000   1.0000   1.0000   1.0000   0.0000   0.0000
     0.0000   0.0000   0.0000   0.0000

          k = 0.0000 0.0000-1.0000 (  1144 PWs)   bands (ev):

   -67.7653 -34.0545 -34.0545 -34.0545  14.6642  14.6642  19.7924  19.7924
    19.7924  27.3074  27.3074  27.3074

     occupation numbers 
     1.0000   1.0000   1.0000   1.0000   1.0000   1.0000   0.0000   0.0000
     0.0000   0.0000   0.0000   0.0000

     the Fermi energy is    17.4533 ev

!    total energy              =    -329.26935229 Ry
     total all-electron energy =     -2545.565885 Ry
     estimated scf accuracy    <          3.2E-11 Ry
     smearing contrib. (-TS)   =       0.00005935 Ry
     internal energy E=F+TS    =    -329.26941164 Ry

     The total energy is F=E-TS. E is the sum of the following terms:
     one-electron contribution =    -113.09211038 Ry
     hartree contribution      =      66.24501232 Ry
     xc contribution           =     -27.74050048 Ry
     ewald contribution        =    -171.88999319 Ry
     one-center paw contrib.   =     -82.79181991 Ry
      -> PAW hartree energy AE =     182.95018286 Ry
      -> PAW hartree energy PS =    -181.65241841 Ry
      -> PAW xc energy AE      =    -110.16083608 Ry
      -> PAW xc energy PS      =      26.07125172 Ry
      -> total E_H with PAW    =      67.54277677 Ry
      -> total E_XC with PAW   =    -111.83008484 Ry

     total magnetization       =     2.25 Bohr mag/cell
     absolute magnetization    =     2.37 Bohr mag/cell

     convergence has been achieved in  18 iterations

     negative rho (up, down):  0.000E+00 4.432E-05

     Forces acting on atoms (cartesian axes, Ry/au):

     atom    1 type  1   force =     0.00000000    0.00000000    0.00000000
     The non-local contrib.  to forces
     atom    1 type  1   force =     0.00000000   -0.00000000   -0.00000000
     The ionic contribution  to forces
     atom    1 type  1   force =    -0.00000000   -0.00000000   -0.00000000
     The local contribution  to forces
     atom    1 type  1   force =    -0.00000000   -0.00000000    0.00000000
     The core correction contribution to forces
     atom    1 type  1   force =     0.00000000   -0.00000000    0.00000000
     The Hubbard contrib.    to forces
     atom    1 type  1   force =     0.00000000    0.00000000    0.00000000
     The SCF correction term to forces
     atom    1 type  1   force =    -0.00000000    0.00000000   -0.00000000

     Total force =     0.000000     Total SCF correction =     0.000000


     Computing stress (Cartesian axis) and pressure


     negative rho (up, down):  0.000E+00 4.432E-05
          total   stress  (Ry/bohr**3)                   (kbar)     P=      -66.85
  -0.00045446  -0.00000000   0.00000000          -66.85       -0.00        0.00
  -0.00000000  -0.00045446  -0.00000000           -0.00      -66.85       -0.00
   0.00000000  -0.00000000  -0.00045446            0.00       -0.00      -66.85

     kinetic stress (kbar)  95423.69     -0.00      0.00
                               -0.00  95423.69     -0.00
                                0.00     -0.00  95423.69

     local   stress (kbar)  12104.50      0.00      0.00
                                0.00  12104.50      0.00
                                0.00      0.00  12104.50

     nonloc. stress (kbar) -26162.50     -0.00      0.00
                               -0.00 -26162.50     -0.00
                                0.00     -0.00 -26162.50

     hartree stress (kbar)  40802.97      0.00      0.00
                                0.00  40802.97      0.00
                                0.00      0.00  40802.97

     exc-cor stress (kbar) -13741.90      0.00      0.00
                                0.00 -13741.90      0.00
                                0.00      0.00 -13741.90

     corecor stress (kbar)  -2619.65     -0.00     -0.00
                               -0.00  -2619.65     -0.00
                               -0.00     -0.00  -2619.65

     ewald   stress (kbar)-105873.96      0.00      0.00
                                0.00-105873.96      0.00
                                0.00      0.00-105873.96

     hubbard stress (kbar)      0.00      0.00      0.00
                                0.00      0.00      0.00
                                0.00      0.00      0.00

     DFT-D   stress (kbar)      0.00      0.00      0.00
                                0.00      0.00      0.00
                                0.00      0.00      0.00

     XDM     stress (kbar)      0.00      0.00      0.00
                                0.00      0.00      0.00
                                0.00      0.00      0.00

     dft-nl  stress (kbar)      0.00      0.00      0.00
                                0.00      0.00      0.00
                                0.00      0.00      0.00

     TS-vdW  stress (kbar)      0.00      0.00      0.00
                                0.00      0.00      0.00
                                0.00      0.00      0.00

     MDB     stress (kbar)      0.00      0.00      0.00
                                0.00      0.00      0.00
                                0.00      0.00      0.00

     3D-RISM stress (kbar)      0.00      0.00      0.00
                                0.00      0.00      0.00
                                0.00      0.00      0.00


     Writing all to output data dir ./tmp/fe_bcc_fm.save/ :
     XML data file, charge density, pseudopotentials, collected wavefunctions

     init_run     :      0.60s CPU      0.81s WALL (       1 calls)
     electrons    :      3.97s CPU      6.57s WALL (       1 calls)
     forces       :      0.04s CPU      0.05s WALL (       1 calls)
     stress       :      0.07s CPU      0.07s WALL (       1 calls)

     Called by init_run:
     wfcinit      :      0.05s CPU      0.08s WALL (       1 calls)
     wfcinit:atom :      0.00s CPU      0.00s WALL (      19 calls)
     wfcinit:wfcr :      0.05s CPU      0.05s WALL (      19 calls)
     potinit      :      0.28s CPU      0.43s WALL (       1 calls)
     hinit0       :      0.23s CPU      0.26s WALL (       1 calls)

     Called by electrons:
     c_bands      :      1.50s CPU      1.65s WALL (      18 calls)
     sum_band     :      0.36s CPU      0.40s WALL (      18 calls)
     v_of_rho     :      0.48s CPU      0.57s WALL (      19 calls)
     v_h          :      0.01s CPU      0.01s WALL (      19 calls)
     v_xc         :      0.52s CPU      0.61s WALL (      21 calls)
     newd         :      0.05s CPU      0.06s WALL (      19 calls)
     PAW_pot      :      1.61s CPU      3.87s WALL (      19 calls)
     mix_rho      :      0.03s CPU      0.03s WALL (      18 calls)

     Called by c_bands:
     init_us_2    :      0.02s CPU      0.02s WALL (     741 calls)
     cegterg      :      1.33s CPU      1.44s WALL (     342 calls)

     Called by sum_band:
     sum_band:wei :      0.01s CPU      0.02s WALL (      18 calls)
     sum_band:loo :      0.23s CPU      0.24s WALL (      18 calls)
     sum_band:buf :      0.00s CPU      0.00s WALL (     342 calls)
     sum_band:ini :      0.01s CPU      0.01s WALL (     342 calls)
     sum_band:cal :      0.01s CPU      0.01s WALL (     342 calls)
     sum_band:bec :      0.00s CPU      0.00s WALL (     342 calls)
     addusdens    :      0.05s CPU      0.05s WALL (      18 calls)
                                        0.00s GPU  (      18 calls)
     addusd:skk   :      0.00s CPU      0.00s WALL (      18 calls)
                                        0.00s GPU  (      18 calls)

     Called by *egterg:
     cdiaghg      :      0.15s CPU      0.16s WALL (    1108 calls)
     cegterg:over :      0.04s CPU      0.05s WALL (     766 calls)
     cegterg:upda :      0.01s CPU      0.01s WALL (     766 calls)
     cegterg:last :      0.02s CPU      0.02s WALL (     624 calls)
     h_psi        :      1.10s CPU      1.20s WALL (    1127 calls)
     s_psi        :      0.01s CPU      0.01s WALL (    1127 calls)
     g_psi        :      0.00s CPU      0.00s WALL (     766 calls)

     Called by h_psi:
     h_psi:calbec :      0.03s CPU      0.04s WALL (    1127 calls)
     vloc_psi     :      1.04s CPU      1.14s WALL (    1127 calls)
     add_vuspsi   :      0.01s CPU      0.01s WALL (    1127 calls)

     General routines
     calbec       :      0.05s CPU      0.06s WALL (    1564 calls)
     fft          :      0.36s CPU      0.44s WALL (     513 calls)
     ffts         :      0.15s CPU      0.15s WALL (      74 calls)
     fftw         :      1.06s CPU      1.16s WALL (   24836 calls)
     interpolate  :      0.17s CPU      0.19s WALL (      38 calls)

     Parallel routines

     PAW routines
     PAW_pot      :      1.61s CPU      3.87s WALL (      19 calls)
     PAW_symme    :      0.02s CPU      0.02s WALL (      37 calls)

     PWSCF        :      4.86s CPU      9.28s WALL


   This run was terminated on:   6:11:16  19May2025            

=------------------------------------------------------------------------------=
   JOB DONE.
=------------------------------------------------------------------------------=
