
     Program PWSCF v.7.3.1 starts on 24May2025 at 11:17:19 

     This program is part of the open-source Quantum ESPRESSO suite
     for quantum simulation of materials; please cite
         "P. Giannozzi et al., J. Phys.:Condens. Matter 21 395502 (2009);
         "P. Giannozzi et al., J. Phys.:Condens. Matter 29 465901 (2017);
         "P. Giannozzi et al., J. Chem. Phys. 152 154105 (2020);
          URL http://www.quantum-espresso.org", 
     in publications or presentations arising from this work. More details at
     http://www.quantum-espresso.org/quote

     Parallel version (MPI & OpenMP), running on       8 processor cores
     Number of MPI processes:                 8
     Threads/MPI process:                     1

     MPI processes distributed on     1 nodes
     440232 MiB available memory on the printing compute node when the environment starts

     Waiting for input...
     Reading input from standard input

     Current dimensions of program PWSCF are:
     Max number of different atomic species (ntypx) = 10
     Max number of k-points (npk) =  40000
     Max angular momentum in pseudopotentials (lmaxx) =  4
     file Fe.pbe-spn-kjpaw_psl.1.0.0.UPF: wavefunction(s)  3P 3D renormalized
     Found identity + ( -0.5000 -0.5000 -0.5000) symmetry
     This is a supercell, fractional translations are disabled
     Message from routine setup:
     using ibrav=0 with symmetry is DISCOURAGED, use correct ibrav instead

     R & G space division:  proc/nbgrp/npool/nimage =       8
     Subspace diagonalization in iterative solution of the eigenvalue problem:
     a serial algorithm will be used


     Parallelization info
     --------------------
     sticks:   dense  smooth     PW     G-vecs:    dense   smooth      PW
     Min         317     105     31                11929     2289     383
     Max         318     106     32                11930     2292     386
     Sum        2537     845    253                95433    18325    3071

     Using Slab Decomposition



     bravais-lattice index     =            0
     lattice parameter (alat)  =       5.4199  a.u.
     unit-cell volume          =     159.2133 (a.u.)^3
     number of atoms/cell      =            2
     number of atomic types    =            1
     number of electrons       =        32.00
     number of Kohn-Sham states=           20
     kinetic-energy cutoff     =      90.0000  Ry
     charge density cutoff     =    1080.0000  Ry
     scf convergence threshold =      1.0E-08
     mixing beta               =       0.2000
     number of iterations used =            8  plain     mixing
     Exchange-correlation= SLA  PW   PBX  PBC
                           (   1   4   3   4   0   0   0)

     celldm(1)=   5.419923  celldm(2)=   0.000000  celldm(3)=   0.000000
     celldm(4)=   0.000000  celldm(5)=   0.000000  celldm(6)=   0.000000

     crystal axes: (cart. coord. in units of alat)
               a(1) = (   1.000000   0.000000   0.000000 )  
               a(2) = (   0.000000   1.000000   0.000000 )  
               a(3) = (   0.000000   0.000000   1.000000 )  

     reciprocal axes: (cart. coord. in units 2 pi/alat)
               b(1) = (  1.000000  0.000000  0.000000 )  
               b(2) = (  0.000000  1.000000  0.000000 )  
               b(3) = (  0.000000  0.000000  1.000000 )  


     PseudoPot. # 1 for Fe read from file:
     ./pseudo/Fe.pbe-spn-kjpaw_psl.1.0.0.UPF
     MD5 check sum: fc81f059e5c5069939230b1155715ae8
     Pseudo is Projector augmented-wave + core cor, Zval = 16.0
     Generated using &quot;atomic&quot; code by A. Dal Corso  v.6.3
     Shape of augmentation charge: PSQ
     Using radial grid of 1191 points,  6 beta functions with: 
                l(1) =   0
                l(2) =   0
                l(3) =   1
                l(4) =   1
                l(5) =   2
                l(6) =   2
     Q(r) pseudized with 0 coefficients 


     atomic species   valence    mass     pseudopotential
     Fe               16.00    55.84500     Fe( 1.00)

     Starting magnetic structure 
     atomic species   magnetization
     Fe              0.400

     48 Sym. Ops., with inversion, found


                                    s                        frac. trans.

      isym =  1     identity                                     

 cryst.   s( 1) = (     1          0          0      )
                  (     0          1          0      )
                  (     0          0          1      )

 cart.    s( 1) = (  1.0000000  0.0000000  0.0000000 )
                  (  0.0000000  1.0000000  0.0000000 )
                  (  0.0000000  0.0000000  1.0000000 )


      isym =  2     180 deg rotation - cart. axis [0,0,1]        

 cryst.   s( 2) = (    -1          0          0      )
                  (     0         -1          0      )
                  (     0          0          1      )

 cart.    s( 2) = ( -1.0000000  0.0000000  0.0000000 )
                  (  0.0000000 -1.0000000  0.0000000 )
                  (  0.0000000  0.0000000  1.0000000 )


      isym =  3     180 deg rotation - cart. axis [0,1,0]        

 cryst.   s( 3) = (    -1          0          0      )
                  (     0          1          0      )
                  (     0          0         -1      )

 cart.    s( 3) = ( -1.0000000  0.0000000  0.0000000 )
                  (  0.0000000  1.0000000  0.0000000 )
                  (  0.0000000  0.0000000 -1.0000000 )


      isym =  4     180 deg rotation - cart. axis [1,0,0]        

 cryst.   s( 4) = (     1          0          0      )
                  (     0         -1          0      )
                  (     0          0         -1      )

 cart.    s( 4) = (  1.0000000  0.0000000  0.0000000 )
                  (  0.0000000 -1.0000000  0.0000000 )
                  (  0.0000000  0.0000000 -1.0000000 )


      isym =  5     180 deg rotation - cart. axis [1,1,0]        

 cryst.   s( 5) = (     0          1          0      )
                  (     1          0          0      )
                  (     0          0         -1      )

 cart.    s( 5) = (  0.0000000  1.0000000  0.0000000 )
                  (  1.0000000  0.0000000  0.0000000 )
                  (  0.0000000  0.0000000 -1.0000000 )


      isym =  6     180 deg rotation - cart. axis [1,-1,0]       

 cryst.   s( 6) = (     0         -1          0      )
                  (    -1          0          0      )
                  (     0          0         -1      )

 cart.    s( 6) = (  0.0000000 -1.0000000  0.0000000 )
                  ( -1.0000000  0.0000000  0.0000000 )
                  (  0.0000000  0.0000000 -1.0000000 )


      isym =  7      90 deg rotation - cart. axis [0,0,-1]       

 cryst.   s( 7) = (     0         -1          0      )
                  (     1          0          0      )
                  (     0          0          1      )

 cart.    s( 7) = (  0.0000000  1.0000000  0.0000000 )
                  ( -1.0000000  0.0000000  0.0000000 )
                  (  0.0000000  0.0000000  1.0000000 )


      isym =  8      90 deg rotation - cart. axis [0,0,1]        

 cryst.   s( 8) = (     0          1          0      )
                  (    -1          0          0      )
                  (     0          0          1      )

 cart.    s( 8) = (  0.0000000 -1.0000000  0.0000000 )
                  (  1.0000000  0.0000000  0.0000000 )
                  (  0.0000000  0.0000000  1.0000000 )


      isym =  9     180 deg rotation - cart. axis [1,0,1]        

 cryst.   s( 9) = (     0          0          1      )
                  (     0         -1          0      )
                  (     1          0          0      )

 cart.    s( 9) = (  0.0000000  0.0000000  1.0000000 )
                  (  0.0000000 -1.0000000  0.0000000 )
                  (  1.0000000  0.0000000  0.0000000 )


      isym = 10     180 deg rotation - cart. axis [-1,0,1]       

 cryst.   s(10) = (     0          0         -1      )
                  (     0         -1          0      )
                  (    -1          0          0      )

 cart.    s(10) = (  0.0000000  0.0000000 -1.0000000 )
                  (  0.0000000 -1.0000000  0.0000000 )
                  ( -1.0000000  0.0000000  0.0000000 )


      isym = 11      90 deg rotation - cart. axis [0,1,0]        

 cryst.   s(11) = (     0          0         -1      )
                  (     0          1          0      )
                  (     1          0          0      )

 cart.    s(11) = (  0.0000000  0.0000000  1.0000000 )
                  (  0.0000000  1.0000000  0.0000000 )
                  ( -1.0000000  0.0000000  0.0000000 )


      isym = 12      90 deg rotation - cart. axis [0,-1,0]       

 cryst.   s(12) = (     0          0          1      )
                  (     0          1          0      )
                  (    -1          0          0      )

 cart.    s(12) = (  0.0000000  0.0000000 -1.0000000 )
                  (  0.0000000  1.0000000  0.0000000 )
                  (  1.0000000  0.0000000  0.0000000 )


      isym = 13     180 deg rotation - cart. axis [0,1,1]        

 cryst.   s(13) = (    -1          0          0      )
                  (     0          0          1      )
                  (     0          1          0      )

 cart.    s(13) = ( -1.0000000  0.0000000  0.0000000 )
                  (  0.0000000  0.0000000  1.0000000 )
                  (  0.0000000  1.0000000  0.0000000 )


      isym = 14     180 deg rotation - cart. axis [0,1,-1]       

 cryst.   s(14) = (    -1          0          0      )
                  (     0          0         -1      )
                  (     0         -1          0      )

 cart.    s(14) = ( -1.0000000  0.0000000  0.0000000 )
                  (  0.0000000  0.0000000 -1.0000000 )
                  (  0.0000000 -1.0000000  0.0000000 )


      isym = 15      90 deg rotation - cart. axis [-1,0,0]       

 cryst.   s(15) = (     1          0          0      )
                  (     0          0         -1      )
                  (     0          1          0      )

 cart.    s(15) = (  1.0000000  0.0000000  0.0000000 )
                  (  0.0000000  0.0000000  1.0000000 )
                  (  0.0000000 -1.0000000  0.0000000 )


      isym = 16      90 deg rotation - cart. axis [1,0,0]        

 cryst.   s(16) = (     1          0          0      )
                  (     0          0          1      )
                  (     0         -1          0      )

 cart.    s(16) = (  1.0000000  0.0000000  0.0000000 )
                  (  0.0000000  0.0000000 -1.0000000 )
                  (  0.0000000  1.0000000  0.0000000 )


      isym = 17     120 deg rotation - cart. axis [-1,-1,-1]     

 cryst.   s(17) = (     0          0          1      )
                  (     1          0          0      )
                  (     0          1          0      )

 cart.    s(17) = (  0.0000000  1.0000000  0.0000000 )
                  (  0.0000000  0.0000000  1.0000000 )
                  (  1.0000000  0.0000000  0.0000000 )


      isym = 18     120 deg rotation - cart. axis [-1,1,1]       

 cryst.   s(18) = (     0          0         -1      )
                  (    -1          0          0      )
                  (     0          1          0      )

 cart.    s(18) = (  0.0000000 -1.0000000  0.0000000 )
                  (  0.0000000  0.0000000  1.0000000 )
                  ( -1.0000000  0.0000000  0.0000000 )


      isym = 19     120 deg rotation - cart. axis [1,1,-1]       

 cryst.   s(19) = (     0          0         -1      )
                  (     1          0          0      )
                  (     0         -1          0      )

 cart.    s(19) = (  0.0000000  1.0000000  0.0000000 )
                  (  0.0000000  0.0000000 -1.0000000 )
                  ( -1.0000000  0.0000000  0.0000000 )


      isym = 20     120 deg rotation - cart. axis [1,-1,1]       

 cryst.   s(20) = (     0          0          1      )
                  (    -1          0          0      )
                  (     0         -1          0      )

 cart.    s(20) = (  0.0000000 -1.0000000  0.0000000 )
                  (  0.0000000  0.0000000 -1.0000000 )
                  (  1.0000000  0.0000000  0.0000000 )


      isym = 21     120 deg rotation - cart. axis [1,1,1]        

 cryst.   s(21) = (     0          1          0      )
                  (     0          0          1      )
                  (     1          0          0      )

 cart.    s(21) = (  0.0000000  0.0000000  1.0000000 )
                  (  1.0000000  0.0000000  0.0000000 )
                  (  0.0000000  1.0000000  0.0000000 )


      isym = 22     120 deg rotation - cart. axis [-1,1,-1]      

 cryst.   s(22) = (     0         -1          0      )
                  (     0          0         -1      )
                  (     1          0          0      )

 cart.    s(22) = (  0.0000000  0.0000000  1.0000000 )
                  ( -1.0000000  0.0000000  0.0000000 )
                  (  0.0000000 -1.0000000  0.0000000 )


      isym = 23     120 deg rotation - cart. axis [1,-1,-1]      

 cryst.   s(23) = (     0         -1          0      )
                  (     0          0          1      )
                  (    -1          0          0      )

 cart.    s(23) = (  0.0000000  0.0000000 -1.0000000 )
                  ( -1.0000000  0.0000000  0.0000000 )
                  (  0.0000000  1.0000000  0.0000000 )


      isym = 24     120 deg rotation - cart. axis [-1,-1,1]      

 cryst.   s(24) = (     0          1          0      )
                  (     0          0         -1      )
                  (    -1          0          0      )

 cart.    s(24) = (  0.0000000  0.0000000 -1.0000000 )
                  (  1.0000000  0.0000000  0.0000000 )
                  (  0.0000000 -1.0000000  0.0000000 )


      isym = 25     inversion                                    

 cryst.   s(25) = (    -1          0          0      )
                  (     0         -1          0      )
                  (     0          0         -1      )

 cart.    s(25) = ( -1.0000000  0.0000000  0.0000000 )
                  (  0.0000000 -1.0000000  0.0000000 )
                  (  0.0000000  0.0000000 -1.0000000 )


      isym = 26     inv. 180 deg rotation - cart. axis [0,0,1]   

 cryst.   s(26) = (     1          0          0      )
                  (     0          1          0      )
                  (     0          0         -1      )

 cart.    s(26) = (  1.0000000  0.0000000  0.0000000 )
                  (  0.0000000  1.0000000  0.0000000 )
                  (  0.0000000  0.0000000 -1.0000000 )


      isym = 27     inv. 180 deg rotation - cart. axis [0,1,0]   

 cryst.   s(27) = (     1          0          0      )
                  (     0         -1          0      )
                  (     0          0          1      )

 cart.    s(27) = (  1.0000000  0.0000000  0.0000000 )
                  (  0.0000000 -1.0000000  0.0000000 )
                  (  0.0000000  0.0000000  1.0000000 )


      isym = 28     inv. 180 deg rotation - cart. axis [1,0,0]   

 cryst.   s(28) = (    -1          0          0      )
                  (     0          1          0      )
                  (     0          0          1      )

 cart.    s(28) = ( -1.0000000  0.0000000  0.0000000 )
                  (  0.0000000  1.0000000  0.0000000 )
                  (  0.0000000  0.0000000  1.0000000 )


      isym = 29     inv. 180 deg rotation - cart. axis [1,1,0]   

 cryst.   s(29) = (     0         -1          0      )
                  (    -1          0          0      )
                  (     0          0          1      )

 cart.    s(29) = (  0.0000000 -1.0000000  0.0000000 )
                  ( -1.0000000  0.0000000  0.0000000 )
                  (  0.0000000  0.0000000  1.0000000 )


      isym = 30     inv. 180 deg rotation - cart. axis [1,-1,0]  

 cryst.   s(30) = (     0          1          0      )
                  (     1          0          0      )
                  (     0          0          1      )

 cart.    s(30) = (  0.0000000  1.0000000  0.0000000 )
                  (  1.0000000  0.0000000  0.0000000 )
                  (  0.0000000  0.0000000  1.0000000 )


      isym = 31     inv.  90 deg rotation - cart. axis [0,0,-1]  

 cryst.   s(31) = (     0          1          0      )
                  (    -1          0          0      )
                  (     0          0         -1      )

 cart.    s(31) = (  0.0000000 -1.0000000  0.0000000 )
                  (  1.0000000  0.0000000  0.0000000 )
                  (  0.0000000  0.0000000 -1.0000000 )


      isym = 32     inv.  90 deg rotation - cart. axis [0,0,1]   

 cryst.   s(32) = (     0         -1          0      )
                  (     1          0          0      )
                  (     0          0         -1      )

 cart.    s(32) = (  0.0000000  1.0000000  0.0000000 )
                  ( -1.0000000  0.0000000  0.0000000 )
                  (  0.0000000  0.0000000 -1.0000000 )


      isym = 33     inv. 180 deg rotation - cart. axis [1,0,1]   

 cryst.   s(33) = (     0          0         -1      )
                  (     0          1          0      )
                  (    -1          0          0      )

 cart.    s(33) = (  0.0000000  0.0000000 -1.0000000 )
                  (  0.0000000  1.0000000  0.0000000 )
                  ( -1.0000000  0.0000000  0.0000000 )


      isym = 34     inv. 180 deg rotation - cart. axis [-1,0,1]  

 cryst.   s(34) = (     0          0          1      )
                  (     0          1          0      )
                  (     1          0          0      )

 cart.    s(34) = (  0.0000000  0.0000000  1.0000000 )
                  (  0.0000000  1.0000000  0.0000000 )
                  (  1.0000000  0.0000000  0.0000000 )


      isym = 35     inv.  90 deg rotation - cart. axis [0,1,0]   

 cryst.   s(35) = (     0          0          1      )
                  (     0         -1          0      )
                  (    -1          0          0      )

 cart.    s(35) = (  0.0000000  0.0000000 -1.0000000 )
                  (  0.0000000 -1.0000000  0.0000000 )
                  (  1.0000000  0.0000000  0.0000000 )


      isym = 36     inv.  90 deg rotation - cart. axis [0,-1,0]  

 cryst.   s(36) = (     0          0         -1      )
                  (     0         -1          0      )
                  (     1          0          0      )

 cart.    s(36) = (  0.0000000  0.0000000  1.0000000 )
                  (  0.0000000 -1.0000000  0.0000000 )
                  ( -1.0000000  0.0000000  0.0000000 )


      isym = 37     inv. 180 deg rotation - cart. axis [0,1,1]   

 cryst.   s(37) = (     1          0          0      )
                  (     0          0         -1      )
                  (     0         -1          0      )

 cart.    s(37) = (  1.0000000  0.0000000  0.0000000 )
                  (  0.0000000  0.0000000 -1.0000000 )
                  (  0.0000000 -1.0000000  0.0000000 )


      isym = 38     inv. 180 deg rotation - cart. axis [0,1,-1]  

 cryst.   s(38) = (     1          0          0      )
                  (     0          0          1      )
                  (     0          1          0      )

 cart.    s(38) = (  1.0000000  0.0000000  0.0000000 )
                  (  0.0000000  0.0000000  1.0000000 )
                  (  0.0000000  1.0000000  0.0000000 )


      isym = 39     inv.  90 deg rotation - cart. axis [-1,0,0]  

 cryst.   s(39) = (    -1          0          0      )
                  (     0          0          1      )
                  (     0         -1          0      )

 cart.    s(39) = ( -1.0000000  0.0000000  0.0000000 )
                  (  0.0000000  0.0000000 -1.0000000 )
                  (  0.0000000  1.0000000  0.0000000 )


      isym = 40     inv.  90 deg rotation - cart. axis [1,0,0]   

 cryst.   s(40) = (    -1          0          0      )
                  (     0          0         -1      )
                  (     0          1          0      )

 cart.    s(40) = ( -1.0000000  0.0000000  0.0000000 )
                  (  0.0000000  0.0000000  1.0000000 )
                  (  0.0000000 -1.0000000  0.0000000 )


      isym = 41     inv. 120 deg rotation - cart. axis [-1,-1,-1]

 cryst.   s(41) = (     0          0         -1      )
                  (    -1          0          0      )
                  (     0         -1          0      )

 cart.    s(41) = (  0.0000000 -1.0000000  0.0000000 )
                  (  0.0000000  0.0000000 -1.0000000 )
                  ( -1.0000000  0.0000000  0.0000000 )


      isym = 42     inv. 120 deg rotation - cart. axis [-1,1,1]  

 cryst.   s(42) = (     0          0          1      )
                  (     1          0          0      )
                  (     0         -1          0      )

 cart.    s(42) = (  0.0000000  1.0000000  0.0000000 )
                  (  0.0000000  0.0000000 -1.0000000 )
                  (  1.0000000  0.0000000  0.0000000 )


      isym = 43     inv. 120 deg rotation - cart. axis [1,1,-1]  

 cryst.   s(43) = (     0          0          1      )
                  (    -1          0          0      )
                  (     0          1          0      )

 cart.    s(43) = (  0.0000000 -1.0000000  0.0000000 )
                  (  0.0000000  0.0000000  1.0000000 )
                  (  1.0000000  0.0000000  0.0000000 )


      isym = 44     inv. 120 deg rotation - cart. axis [1,-1,1]  

 cryst.   s(44) = (     0          0         -1      )
                  (     1          0          0      )
                  (     0          1          0      )

 cart.    s(44) = (  0.0000000  1.0000000  0.0000000 )
                  (  0.0000000  0.0000000  1.0000000 )
                  ( -1.0000000  0.0000000  0.0000000 )


      isym = 45     inv. 120 deg rotation - cart. axis [1,1,1]   

 cryst.   s(45) = (     0         -1          0      )
                  (     0          0         -1      )
                  (    -1          0          0      )

 cart.    s(45) = (  0.0000000  0.0000000 -1.0000000 )
                  ( -1.0000000  0.0000000  0.0000000 )
                  (  0.0000000 -1.0000000  0.0000000 )


      isym = 46     inv. 120 deg rotation - cart. axis [-1,1,-1] 

 cryst.   s(46) = (     0          1          0      )
                  (     0          0          1      )
                  (    -1          0          0      )

 cart.    s(46) = (  0.0000000  0.0000000 -1.0000000 )
                  (  1.0000000  0.0000000  0.0000000 )
                  (  0.0000000  1.0000000  0.0000000 )


      isym = 47     inv. 120 deg rotation - cart. axis [1,-1,-1] 

 cryst.   s(47) = (     0          1          0      )
                  (     0          0         -1      )
                  (     1          0          0      )

 cart.    s(47) = (  0.0000000  0.0000000  1.0000000 )
                  (  1.0000000  0.0000000  0.0000000 )
                  (  0.0000000 -1.0000000  0.0000000 )


      isym = 48     inv. 120 deg rotation - cart. axis [-1,-1,1] 

 cryst.   s(48) = (     0         -1          0      )
                  (     0          0          1      )
                  (     1          0          0      )

 cart.    s(48) = (  0.0000000  0.0000000  1.0000000 )
                  ( -1.0000000  0.0000000  0.0000000 )
                  (  0.0000000  1.0000000  0.0000000 )


   Cartesian axes

     site n.     atom                  positions (alat units)
         1        Fe     tau(   1) = (   0.0000000   0.0000000   0.0000000  )
         2        Fe     tau(   2) = (   0.5000000   0.5000000   0.5000000  )

   Crystallographic axes

     site n.     atom                  positions (cryst. coord.)
         1        Fe     tau(   1) = (  0.0000000  0.0000000  0.0000000  )
         2        Fe     tau(   2) = (  0.5000000  0.5000000  0.5000000  )

     number of k points=   165  Marzari-Vanderbilt smearing, width (Ry)=  0.0100
                       cart. coord. in units 2pi/alat
        k(    1) = (   0.0000000   0.0000000   0.0000000), wk =   0.0002441
        k(    2) = (   0.0000000   0.0000000   0.0625000), wk =   0.0014648
        k(    3) = (   0.0000000   0.0000000   0.1250000), wk =   0.0014648
        k(    4) = (   0.0000000   0.0000000   0.1875000), wk =   0.0014648
        k(    5) = (   0.0000000   0.0000000   0.2500000), wk =   0.0014648
        k(    6) = (   0.0000000   0.0000000   0.3125000), wk =   0.0014648
        k(    7) = (   0.0000000   0.0000000   0.3750000), wk =   0.0014648
        k(    8) = (   0.0000000   0.0000000   0.4375000), wk =   0.0014648
        k(    9) = (   0.0000000   0.0000000  -0.5000000), wk =   0.0007324
        k(   10) = (   0.0000000   0.0625000   0.0625000), wk =   0.0029297
        k(   11) = (   0.0000000   0.0625000   0.1250000), wk =   0.0058594
        k(   12) = (   0.0000000   0.0625000   0.1875000), wk =   0.0058594
        k(   13) = (   0.0000000   0.0625000   0.2500000), wk =   0.0058594
        k(   14) = (   0.0000000   0.0625000   0.3125000), wk =   0.0058594
        k(   15) = (   0.0000000   0.0625000   0.3750000), wk =   0.0058594
        k(   16) = (   0.0000000   0.0625000   0.4375000), wk =   0.0058594
        k(   17) = (   0.0000000   0.0625000  -0.5000000), wk =   0.0029297
        k(   18) = (   0.0000000   0.1250000   0.1250000), wk =   0.0029297
        k(   19) = (   0.0000000   0.1250000   0.1875000), wk =   0.0058594
        k(   20) = (   0.0000000   0.1250000   0.2500000), wk =   0.0058594
        k(   21) = (   0.0000000   0.1250000   0.3125000), wk =   0.0058594
        k(   22) = (   0.0000000   0.1250000   0.3750000), wk =   0.0058594
        k(   23) = (   0.0000000   0.1250000   0.4375000), wk =   0.0058594
        k(   24) = (   0.0000000   0.1250000  -0.5000000), wk =   0.0029297
        k(   25) = (   0.0000000   0.1875000   0.1875000), wk =   0.0029297
        k(   26) = (   0.0000000   0.1875000   0.2500000), wk =   0.0058594
        k(   27) = (   0.0000000   0.1875000   0.3125000), wk =   0.0058594
        k(   28) = (   0.0000000   0.1875000   0.3750000), wk =   0.0058594
        k(   29) = (   0.0000000   0.1875000   0.4375000), wk =   0.0058594
        k(   30) = (   0.0000000   0.1875000  -0.5000000), wk =   0.0029297
        k(   31) = (   0.0000000   0.2500000   0.2500000), wk =   0.0029297
        k(   32) = (   0.0000000   0.2500000   0.3125000), wk =   0.0058594
        k(   33) = (   0.0000000   0.2500000   0.3750000), wk =   0.0058594
        k(   34) = (   0.0000000   0.2500000   0.4375000), wk =   0.0058594
        k(   35) = (   0.0000000   0.2500000  -0.5000000), wk =   0.0029297
        k(   36) = (   0.0000000   0.3125000   0.3125000), wk =   0.0029297
        k(   37) = (   0.0000000   0.3125000   0.3750000), wk =   0.0058594
        k(   38) = (   0.0000000   0.3125000   0.4375000), wk =   0.0058594
        k(   39) = (   0.0000000   0.3125000  -0.5000000), wk =   0.0029297
        k(   40) = (   0.0000000   0.3750000   0.3750000), wk =   0.0029297
        k(   41) = (   0.0000000   0.3750000   0.4375000), wk =   0.0058594
        k(   42) = (   0.0000000   0.3750000  -0.5000000), wk =   0.0029297
        k(   43) = (   0.0000000   0.4375000   0.4375000), wk =   0.0029297
        k(   44) = (   0.0000000   0.4375000  -0.5000000), wk =   0.0029297
        k(   45) = (   0.0000000  -0.5000000  -0.5000000), wk =   0.0007324
        k(   46) = (   0.0625000   0.0625000   0.0625000), wk =   0.0019531
        k(   47) = (   0.0625000   0.0625000   0.1250000), wk =   0.0058594
        k(   48) = (   0.0625000   0.0625000   0.1875000), wk =   0.0058594
        k(   49) = (   0.0625000   0.0625000   0.2500000), wk =   0.0058594
        k(   50) = (   0.0625000   0.0625000   0.3125000), wk =   0.0058594
        k(   51) = (   0.0625000   0.0625000   0.3750000), wk =   0.0058594
        k(   52) = (   0.0625000   0.0625000   0.4375000), wk =   0.0058594
        k(   53) = (   0.0625000   0.0625000  -0.5000000), wk =   0.0029297
        k(   54) = (   0.0625000   0.1250000   0.1250000), wk =   0.0058594
        k(   55) = (   0.0625000   0.1250000   0.1875000), wk =   0.0117188
        k(   56) = (   0.0625000   0.1250000   0.2500000), wk =   0.0117188
        k(   57) = (   0.0625000   0.1250000   0.3125000), wk =   0.0117188
        k(   58) = (   0.0625000   0.1250000   0.3750000), wk =   0.0117188
        k(   59) = (   0.0625000   0.1250000   0.4375000), wk =   0.0117188
        k(   60) = (   0.0625000   0.1250000  -0.5000000), wk =   0.0058594
        k(   61) = (   0.0625000   0.1875000   0.1875000), wk =   0.0058594
        k(   62) = (   0.0625000   0.1875000   0.2500000), wk =   0.0117188
        k(   63) = (   0.0625000   0.1875000   0.3125000), wk =   0.0117188
        k(   64) = (   0.0625000   0.1875000   0.3750000), wk =   0.0117188
        k(   65) = (   0.0625000   0.1875000   0.4375000), wk =   0.0117188
        k(   66) = (   0.0625000   0.1875000  -0.5000000), wk =   0.0058594
        k(   67) = (   0.0625000   0.2500000   0.2500000), wk =   0.0058594
        k(   68) = (   0.0625000   0.2500000   0.3125000), wk =   0.0117188
        k(   69) = (   0.0625000   0.2500000   0.3750000), wk =   0.0117188
        k(   70) = (   0.0625000   0.2500000   0.4375000), wk =   0.0117188
        k(   71) = (   0.0625000   0.2500000  -0.5000000), wk =   0.0058594
        k(   72) = (   0.0625000   0.3125000   0.3125000), wk =   0.0058594
        k(   73) = (   0.0625000   0.3125000   0.3750000), wk =   0.0117188
        k(   74) = (   0.0625000   0.3125000   0.4375000), wk =   0.0117188
        k(   75) = (   0.0625000   0.3125000  -0.5000000), wk =   0.0058594
        k(   76) = (   0.0625000   0.3750000   0.3750000), wk =   0.0058594
        k(   77) = (   0.0625000   0.3750000   0.4375000), wk =   0.0117188
        k(   78) = (   0.0625000   0.3750000  -0.5000000), wk =   0.0058594
        k(   79) = (   0.0625000   0.4375000   0.4375000), wk =   0.0058594
        k(   80) = (   0.0625000   0.4375000  -0.5000000), wk =   0.0058594
        k(   81) = (   0.0625000  -0.5000000  -0.5000000), wk =   0.0014648
        k(   82) = (   0.1250000   0.1250000   0.1250000), wk =   0.0019531
        k(   83) = (   0.1250000   0.1250000   0.1875000), wk =   0.0058594
        k(   84) = (   0.1250000   0.1250000   0.2500000), wk =   0.0058594
        k(   85) = (   0.1250000   0.1250000   0.3125000), wk =   0.0058594
        k(   86) = (   0.1250000   0.1250000   0.3750000), wk =   0.0058594
        k(   87) = (   0.1250000   0.1250000   0.4375000), wk =   0.0058594
        k(   88) = (   0.1250000   0.1250000  -0.5000000), wk =   0.0029297
        k(   89) = (   0.1250000   0.1875000   0.1875000), wk =   0.0058594
        k(   90) = (   0.1250000   0.1875000   0.2500000), wk =   0.0117188
        k(   91) = (   0.1250000   0.1875000   0.3125000), wk =   0.0117188
        k(   92) = (   0.1250000   0.1875000   0.3750000), wk =   0.0117188
        k(   93) = (   0.1250000   0.1875000   0.4375000), wk =   0.0117188
        k(   94) = (   0.1250000   0.1875000  -0.5000000), wk =   0.0058594
        k(   95) = (   0.1250000   0.2500000   0.2500000), wk =   0.0058594
        k(   96) = (   0.1250000   0.2500000   0.3125000), wk =   0.0117188
        k(   97) = (   0.1250000   0.2500000   0.3750000), wk =   0.0117188
        k(   98) = (   0.1250000   0.2500000   0.4375000), wk =   0.0117188
        k(   99) = (   0.1250000   0.2500000  -0.5000000), wk =   0.0058594
        k(  100) = (   0.1250000   0.3125000   0.3125000), wk =   0.0058594
        k(  101) = (   0.1250000   0.3125000   0.3750000), wk =   0.0117188
        k(  102) = (   0.1250000   0.3125000   0.4375000), wk =   0.0117188
        k(  103) = (   0.1250000   0.3125000  -0.5000000), wk =   0.0058594
        k(  104) = (   0.1250000   0.3750000   0.3750000), wk =   0.0058594
        k(  105) = (   0.1250000   0.3750000   0.4375000), wk =   0.0117188
        k(  106) = (   0.1250000   0.3750000  -0.5000000), wk =   0.0058594
        k(  107) = (   0.1250000   0.4375000   0.4375000), wk =   0.0058594
        k(  108) = (   0.1250000   0.4375000  -0.5000000), wk =   0.0058594
        k(  109) = (   0.1250000  -0.5000000  -0.5000000), wk =   0.0014648
        k(  110) = (   0.1875000   0.1875000   0.1875000), wk =   0.0019531
        k(  111) = (   0.1875000   0.1875000   0.2500000), wk =   0.0058594
        k(  112) = (   0.1875000   0.1875000   0.3125000), wk =   0.0058594
        k(  113) = (   0.1875000   0.1875000   0.3750000), wk =   0.0058594
        k(  114) = (   0.1875000   0.1875000   0.4375000), wk =   0.0058594
        k(  115) = (   0.1875000   0.1875000  -0.5000000), wk =   0.0029297
        k(  116) = (   0.1875000   0.2500000   0.2500000), wk =   0.0058594
        k(  117) = (   0.1875000   0.2500000   0.3125000), wk =   0.0117188
        k(  118) = (   0.1875000   0.2500000   0.3750000), wk =   0.0117188
        k(  119) = (   0.1875000   0.2500000   0.4375000), wk =   0.0117188
        k(  120) = (   0.1875000   0.2500000  -0.5000000), wk =   0.0058594
        k(  121) = (   0.1875000   0.3125000   0.3125000), wk =   0.0058594
        k(  122) = (   0.1875000   0.3125000   0.3750000), wk =   0.0117188
        k(  123) = (   0.1875000   0.3125000   0.4375000), wk =   0.0117188
        k(  124) = (   0.1875000   0.3125000  -0.5000000), wk =   0.0058594
        k(  125) = (   0.1875000   0.3750000   0.3750000), wk =   0.0058594
        k(  126) = (   0.1875000   0.3750000   0.4375000), wk =   0.0117188
        k(  127) = (   0.1875000   0.3750000  -0.5000000), wk =   0.0058594
        k(  128) = (   0.1875000   0.4375000   0.4375000), wk =   0.0058594
        k(  129) = (   0.1875000   0.4375000  -0.5000000), wk =   0.0058594
        k(  130) = (   0.1875000  -0.5000000  -0.5000000), wk =   0.0014648
        k(  131) = (   0.2500000   0.2500000   0.2500000), wk =   0.0019531
        k(  132) = (   0.2500000   0.2500000   0.3125000), wk =   0.0058594
        k(  133) = (   0.2500000   0.2500000   0.3750000), wk =   0.0058594
        k(  134) = (   0.2500000   0.2500000   0.4375000), wk =   0.0058594
        k(  135) = (   0.2500000   0.2500000  -0.5000000), wk =   0.0029297
        k(  136) = (   0.2500000   0.3125000   0.3125000), wk =   0.0058594
        k(  137) = (   0.2500000   0.3125000   0.3750000), wk =   0.0117188
        k(  138) = (   0.2500000   0.3125000   0.4375000), wk =   0.0117188
        k(  139) = (   0.2500000   0.3125000  -0.5000000), wk =   0.0058594
        k(  140) = (   0.2500000   0.3750000   0.3750000), wk =   0.0058594
        k(  141) = (   0.2500000   0.3750000   0.4375000), wk =   0.0117188
        k(  142) = (   0.2500000   0.3750000  -0.5000000), wk =   0.0058594
        k(  143) = (   0.2500000   0.4375000   0.4375000), wk =   0.0058594
        k(  144) = (   0.2500000   0.4375000  -0.5000000), wk =   0.0058594
        k(  145) = (   0.2500000  -0.5000000  -0.5000000), wk =   0.0014648
        k(  146) = (   0.3125000   0.3125000   0.3125000), wk =   0.0019531
        k(  147) = (   0.3125000   0.3125000   0.3750000), wk =   0.0058594
        k(  148) = (   0.3125000   0.3125000   0.4375000), wk =   0.0058594
        k(  149) = (   0.3125000   0.3125000  -0.5000000), wk =   0.0029297
        k(  150) = (   0.3125000   0.3750000   0.3750000), wk =   0.0058594
        k(  151) = (   0.3125000   0.3750000   0.4375000), wk =   0.0117188
        k(  152) = (   0.3125000   0.3750000  -0.5000000), wk =   0.0058594
        k(  153) = (   0.3125000   0.4375000   0.4375000), wk =   0.0058594
        k(  154) = (   0.3125000   0.4375000  -0.5000000), wk =   0.0058594
        k(  155) = (   0.3125000  -0.5000000  -0.5000000), wk =   0.0014648
        k(  156) = (   0.3750000   0.3750000   0.3750000), wk =   0.0019531
        k(  157) = (   0.3750000   0.3750000   0.4375000), wk =   0.0058594
        k(  158) = (   0.3750000   0.3750000  -0.5000000), wk =   0.0029297
        k(  159) = (   0.3750000   0.4375000   0.4375000), wk =   0.0058594
        k(  160) = (   0.3750000   0.4375000  -0.5000000), wk =   0.0058594
        k(  161) = (   0.3750000  -0.5000000  -0.5000000), wk =   0.0014648
        k(  162) = (   0.4375000   0.4375000   0.4375000), wk =   0.0019531
        k(  163) = (   0.4375000   0.4375000  -0.5000000), wk =   0.0029297
        k(  164) = (   0.4375000  -0.5000000  -0.5000000), wk =   0.0014648
        k(  165) = (  -0.5000000  -0.5000000  -0.5000000), wk =   0.0002441

                       cryst. coord.
        k(    1) = (   0.0000000   0.0000000   0.0000000), wk =   0.0002441
        k(    2) = (   0.0000000   0.0000000   0.0625000), wk =   0.0014648
        k(    3) = (   0.0000000   0.0000000   0.1250000), wk =   0.0014648
        k(    4) = (   0.0000000   0.0000000   0.1875000), wk =   0.0014648
        k(    5) = (   0.0000000   0.0000000   0.2500000), wk =   0.0014648
        k(    6) = (   0.0000000   0.0000000   0.3125000), wk =   0.0014648
        k(    7) = (   0.0000000   0.0000000   0.3750000), wk =   0.0014648
        k(    8) = (   0.0000000   0.0000000   0.4375000), wk =   0.0014648
        k(    9) = (   0.0000000   0.0000000  -0.5000000), wk =   0.0007324
        k(   10) = (   0.0000000   0.0625000   0.0625000), wk =   0.0029297
        k(   11) = (   0.0000000   0.0625000   0.1250000), wk =   0.0058594
        k(   12) = (   0.0000000   0.0625000   0.1875000), wk =   0.0058594
        k(   13) = (   0.0000000   0.0625000   0.2500000), wk =   0.0058594
        k(   14) = (   0.0000000   0.0625000   0.3125000), wk =   0.0058594
        k(   15) = (   0.0000000   0.0625000   0.3750000), wk =   0.0058594
        k(   16) = (   0.0000000   0.0625000   0.4375000), wk =   0.0058594
        k(   17) = (   0.0000000   0.0625000  -0.5000000), wk =   0.0029297
        k(   18) = (   0.0000000   0.1250000   0.1250000), wk =   0.0029297
        k(   19) = (   0.0000000   0.1250000   0.1875000), wk =   0.0058594
        k(   20) = (   0.0000000   0.1250000   0.2500000), wk =   0.0058594
        k(   21) = (   0.0000000   0.1250000   0.3125000), wk =   0.0058594
        k(   22) = (   0.0000000   0.1250000   0.3750000), wk =   0.0058594
        k(   23) = (   0.0000000   0.1250000   0.4375000), wk =   0.0058594
        k(   24) = (   0.0000000   0.1250000  -0.5000000), wk =   0.0029297
        k(   25) = (   0.0000000   0.1875000   0.1875000), wk =   0.0029297
        k(   26) = (   0.0000000   0.1875000   0.2500000), wk =   0.0058594
        k(   27) = (   0.0000000   0.1875000   0.3125000), wk =   0.0058594
        k(   28) = (   0.0000000   0.1875000   0.3750000), wk =   0.0058594
        k(   29) = (   0.0000000   0.1875000   0.4375000), wk =   0.0058594
        k(   30) = (   0.0000000   0.1875000  -0.5000000), wk =   0.0029297
        k(   31) = (   0.0000000   0.2500000   0.2500000), wk =   0.0029297
        k(   32) = (   0.0000000   0.2500000   0.3125000), wk =   0.0058594
        k(   33) = (   0.0000000   0.2500000   0.3750000), wk =   0.0058594
        k(   34) = (   0.0000000   0.2500000   0.4375000), wk =   0.0058594
        k(   35) = (   0.0000000   0.2500000  -0.5000000), wk =   0.0029297
        k(   36) = (   0.0000000   0.3125000   0.3125000), wk =   0.0029297
        k(   37) = (   0.0000000   0.3125000   0.3750000), wk =   0.0058594
        k(   38) = (   0.0000000   0.3125000   0.4375000), wk =   0.0058594
        k(   39) = (   0.0000000   0.3125000  -0.5000000), wk =   0.0029297
        k(   40) = (   0.0000000   0.3750000   0.3750000), wk =   0.0029297
        k(   41) = (   0.0000000   0.3750000   0.4375000), wk =   0.0058594
        k(   42) = (   0.0000000   0.3750000  -0.5000000), wk =   0.0029297
        k(   43) = (   0.0000000   0.4375000   0.4375000), wk =   0.0029297
        k(   44) = (   0.0000000   0.4375000  -0.5000000), wk =   0.0029297
        k(   45) = (   0.0000000  -0.5000000  -0.5000000), wk =   0.0007324
        k(   46) = (   0.0625000   0.0625000   0.0625000), wk =   0.0019531
        k(   47) = (   0.0625000   0.0625000   0.1250000), wk =   0.0058594
        k(   48) = (   0.0625000   0.0625000   0.1875000), wk =   0.0058594
        k(   49) = (   0.0625000   0.0625000   0.2500000), wk =   0.0058594
        k(   50) = (   0.0625000   0.0625000   0.3125000), wk =   0.0058594
        k(   51) = (   0.0625000   0.0625000   0.3750000), wk =   0.0058594
        k(   52) = (   0.0625000   0.0625000   0.4375000), wk =   0.0058594
        k(   53) = (   0.0625000   0.0625000  -0.5000000), wk =   0.0029297
        k(   54) = (   0.0625000   0.1250000   0.1250000), wk =   0.0058594
        k(   55) = (   0.0625000   0.1250000   0.1875000), wk =   0.0117188
        k(   56) = (   0.0625000   0.1250000   0.2500000), wk =   0.0117188
        k(   57) = (   0.0625000   0.1250000   0.3125000), wk =   0.0117188
        k(   58) = (   0.0625000   0.1250000   0.3750000), wk =   0.0117188
        k(   59) = (   0.0625000   0.1250000   0.4375000), wk =   0.0117188
        k(   60) = (   0.0625000   0.1250000  -0.5000000), wk =   0.0058594
        k(   61) = (   0.0625000   0.1875000   0.1875000), wk =   0.0058594
        k(   62) = (   0.0625000   0.1875000   0.2500000), wk =   0.0117188
        k(   63) = (   0.0625000   0.1875000   0.3125000), wk =   0.0117188
        k(   64) = (   0.0625000   0.1875000   0.3750000), wk =   0.0117188
        k(   65) = (   0.0625000   0.1875000   0.4375000), wk =   0.0117188
        k(   66) = (   0.0625000   0.1875000  -0.5000000), wk =   0.0058594
        k(   67) = (   0.0625000   0.2500000   0.2500000), wk =   0.0058594
        k(   68) = (   0.0625000   0.2500000   0.3125000), wk =   0.0117188
        k(   69) = (   0.0625000   0.2500000   0.3750000), wk =   0.0117188
        k(   70) = (   0.0625000   0.2500000   0.4375000), wk =   0.0117188
        k(   71) = (   0.0625000   0.2500000  -0.5000000), wk =   0.0058594
        k(   72) = (   0.0625000   0.3125000   0.3125000), wk =   0.0058594
        k(   73) = (   0.0625000   0.3125000   0.3750000), wk =   0.0117188
        k(   74) = (   0.0625000   0.3125000   0.4375000), wk =   0.0117188
        k(   75) = (   0.0625000   0.3125000  -0.5000000), wk =   0.0058594
        k(   76) = (   0.0625000   0.3750000   0.3750000), wk =   0.0058594
        k(   77) = (   0.0625000   0.3750000   0.4375000), wk =   0.0117188
        k(   78) = (   0.0625000   0.3750000  -0.5000000), wk =   0.0058594
        k(   79) = (   0.0625000   0.4375000   0.4375000), wk =   0.0058594
        k(   80) = (   0.0625000   0.4375000  -0.5000000), wk =   0.0058594
        k(   81) = (   0.0625000  -0.5000000  -0.5000000), wk =   0.0014648
        k(   82) = (   0.1250000   0.1250000   0.1250000), wk =   0.0019531
        k(   83) = (   0.1250000   0.1250000   0.1875000), wk =   0.0058594
        k(   84) = (   0.1250000   0.1250000   0.2500000), wk =   0.0058594
        k(   85) = (   0.1250000   0.1250000   0.3125000), wk =   0.0058594
        k(   86) = (   0.1250000   0.1250000   0.3750000), wk =   0.0058594
        k(   87) = (   0.1250000   0.1250000   0.4375000), wk =   0.0058594
        k(   88) = (   0.1250000   0.1250000  -0.5000000), wk =   0.0029297
        k(   89) = (   0.1250000   0.1875000   0.1875000), wk =   0.0058594
        k(   90) = (   0.1250000   0.1875000   0.2500000), wk =   0.0117188
        k(   91) = (   0.1250000   0.1875000   0.3125000), wk =   0.0117188
        k(   92) = (   0.1250000   0.1875000   0.3750000), wk =   0.0117188
        k(   93) = (   0.1250000   0.1875000   0.4375000), wk =   0.0117188
        k(   94) = (   0.1250000   0.1875000  -0.5000000), wk =   0.0058594
        k(   95) = (   0.1250000   0.2500000   0.2500000), wk =   0.0058594
        k(   96) = (   0.1250000   0.2500000   0.3125000), wk =   0.0117188
        k(   97) = (   0.1250000   0.2500000   0.3750000), wk =   0.0117188
        k(   98) = (   0.1250000   0.2500000   0.4375000), wk =   0.0117188
        k(   99) = (   0.1250000   0.2500000  -0.5000000), wk =   0.0058594
        k(  100) = (   0.1250000   0.3125000   0.3125000), wk =   0.0058594
        k(  101) = (   0.1250000   0.3125000   0.3750000), wk =   0.0117188
        k(  102) = (   0.1250000   0.3125000   0.4375000), wk =   0.0117188
        k(  103) = (   0.1250000   0.3125000  -0.5000000), wk =   0.0058594
        k(  104) = (   0.1250000   0.3750000   0.3750000), wk =   0.0058594
        k(  105) = (   0.1250000   0.3750000   0.4375000), wk =   0.0117188
        k(  106) = (   0.1250000   0.3750000  -0.5000000), wk =   0.0058594
        k(  107) = (   0.1250000   0.4375000   0.4375000), wk =   0.0058594
        k(  108) = (   0.1250000   0.4375000  -0.5000000), wk =   0.0058594
        k(  109) = (   0.1250000  -0.5000000  -0.5000000), wk =   0.0014648
        k(  110) = (   0.1875000   0.1875000   0.1875000), wk =   0.0019531
        k(  111) = (   0.1875000   0.1875000   0.2500000), wk =   0.0058594
        k(  112) = (   0.1875000   0.1875000   0.3125000), wk =   0.0058594
        k(  113) = (   0.1875000   0.1875000   0.3750000), wk =   0.0058594
        k(  114) = (   0.1875000   0.1875000   0.4375000), wk =   0.0058594
        k(  115) = (   0.1875000   0.1875000  -0.5000000), wk =   0.0029297
        k(  116) = (   0.1875000   0.2500000   0.2500000), wk =   0.0058594
        k(  117) = (   0.1875000   0.2500000   0.3125000), wk =   0.0117188
        k(  118) = (   0.1875000   0.2500000   0.3750000), wk =   0.0117188
        k(  119) = (   0.1875000   0.2500000   0.4375000), wk =   0.0117188
        k(  120) = (   0.1875000   0.2500000  -0.5000000), wk =   0.0058594
        k(  121) = (   0.1875000   0.3125000   0.3125000), wk =   0.0058594
        k(  122) = (   0.1875000   0.3125000   0.3750000), wk =   0.0117188
        k(  123) = (   0.1875000   0.3125000   0.4375000), wk =   0.0117188
        k(  124) = (   0.1875000   0.3125000  -0.5000000), wk =   0.0058594
        k(  125) = (   0.1875000   0.3750000   0.3750000), wk =   0.0058594
        k(  126) = (   0.1875000   0.3750000   0.4375000), wk =   0.0117188
        k(  127) = (   0.1875000   0.3750000  -0.5000000), wk =   0.0058594
        k(  128) = (   0.1875000   0.4375000   0.4375000), wk =   0.0058594
        k(  129) = (   0.1875000   0.4375000  -0.5000000), wk =   0.0058594
        k(  130) = (   0.1875000  -0.5000000  -0.5000000), wk =   0.0014648
        k(  131) = (   0.2500000   0.2500000   0.2500000), wk =   0.0019531
        k(  132) = (   0.2500000   0.2500000   0.3125000), wk =   0.0058594
        k(  133) = (   0.2500000   0.2500000   0.3750000), wk =   0.0058594
        k(  134) = (   0.2500000   0.2500000   0.4375000), wk =   0.0058594
        k(  135) = (   0.2500000   0.2500000  -0.5000000), wk =   0.0029297
        k(  136) = (   0.2500000   0.3125000   0.3125000), wk =   0.0058594
        k(  137) = (   0.2500000   0.3125000   0.3750000), wk =   0.0117188
        k(  138) = (   0.2500000   0.3125000   0.4375000), wk =   0.0117188
        k(  139) = (   0.2500000   0.3125000  -0.5000000), wk =   0.0058594
        k(  140) = (   0.2500000   0.3750000   0.3750000), wk =   0.0058594
        k(  141) = (   0.2500000   0.3750000   0.4375000), wk =   0.0117188
        k(  142) = (   0.2500000   0.3750000  -0.5000000), wk =   0.0058594
        k(  143) = (   0.2500000   0.4375000   0.4375000), wk =   0.0058594
        k(  144) = (   0.2500000   0.4375000  -0.5000000), wk =   0.0058594
        k(  145) = (   0.2500000  -0.5000000  -0.5000000), wk =   0.0014648
        k(  146) = (   0.3125000   0.3125000   0.3125000), wk =   0.0019531
        k(  147) = (   0.3125000   0.3125000   0.3750000), wk =   0.0058594
        k(  148) = (   0.3125000   0.3125000   0.4375000), wk =   0.0058594
        k(  149) = (   0.3125000   0.3125000  -0.5000000), wk =   0.0029297
        k(  150) = (   0.3125000   0.3750000   0.3750000), wk =   0.0058594
        k(  151) = (   0.3125000   0.3750000   0.4375000), wk =   0.0117188
        k(  152) = (   0.3125000   0.3750000  -0.5000000), wk =   0.0058594
        k(  153) = (   0.3125000   0.4375000   0.4375000), wk =   0.0058594
        k(  154) = (   0.3125000   0.4375000  -0.5000000), wk =   0.0058594
        k(  155) = (   0.3125000  -0.5000000  -0.5000000), wk =   0.0014648
        k(  156) = (   0.3750000   0.3750000   0.3750000), wk =   0.0019531
        k(  157) = (   0.3750000   0.3750000   0.4375000), wk =   0.0058594
        k(  158) = (   0.3750000   0.3750000  -0.5000000), wk =   0.0029297
        k(  159) = (   0.3750000   0.4375000   0.4375000), wk =   0.0058594
        k(  160) = (   0.3750000   0.4375000  -0.5000000), wk =   0.0058594
        k(  161) = (   0.3750000  -0.5000000  -0.5000000), wk =   0.0014648
        k(  162) = (   0.4375000   0.4375000   0.4375000), wk =   0.0019531
        k(  163) = (   0.4375000   0.4375000  -0.5000000), wk =   0.0029297
        k(  164) = (   0.4375000  -0.5000000  -0.5000000), wk =   0.0014648
        k(  165) = (  -0.5000000  -0.5000000  -0.5000000), wk =   0.0002441

     Dense  grid:    95433 G-vectors     FFT dimensions: (  60,  60,  60)

     Smooth grid:    18325 G-vectors     FFT dimensions: (  36,  36,  36)

     Dynamical RAM for                 wfc:       0.09 MB

     Dynamical RAM for     wfc (w. buffer):      28.99 MB

     Dynamical RAM for           str. fact:       0.18 MB

     Dynamical RAM for           local pot:       0.00 MB

     Dynamical RAM for          nlocal pot:       0.16 MB

     Dynamical RAM for                qrad:       2.64 MB

     Dynamical RAM for          rho,v,vnew:       2.41 MB

     Dynamical RAM for               rhoin:       0.80 MB

     Dynamical RAM for            rho*nmix:       5.82 MB

     Dynamical RAM for           G-vectors:       0.70 MB

     Dynamical RAM for          h,s,v(r/c):       0.07 MB

     Dynamical RAM for          <psi|beta>:       0.01 MB

     Dynamical RAM for                 psi:       0.18 MB

     Dynamical RAM for                hpsi:       0.18 MB

     Dynamical RAM for                spsi:       0.18 MB

     Dynamical RAM for      wfcinit/wfcrot:       0.18 MB

     Dynamical RAM for           addusdens:      34.40 MB

     Dynamical RAM for          addusforce:      34.78 MB

     Dynamical RAM for         addusstress:      36.86 MB

     Estimated static dynamical RAM per process >      37.56 MB

     Estimated max dynamical RAM per process >      80.25 MB

     Estimated total dynamical RAM >     641.97 MB
     Generating pointlists ...
     new r_m :   0.3572 (alat units)  1.9362 (a.u.) for type    1

     Initial potential from superposition of free atoms

     starting charge      31.9991, renormalised to      32.0000
     Starting wfcs are   20 randomized atomic wfcs
     Checking if some PAW data can be deallocated... 

     total cpu time spent up to now is        1.9 secs

     per-process dynamical memory:   218.0 Mb

     Self-consistent Calculation

     iteration #  1     ecut=    90.00 Ry     beta= 0.20
     Davidson diagonalization with overlap

---- Real-time Memory Report at c_bands before calling an iterative solver
           286 MiB given to the printing process from OS
           213 MiB allocation reported by mallinfo(arena+hblkhd)
        439823 MiB available memory on the node where the printing process lives
------------------
     ethr =  1.00E-02,  avg # of iterations =  3.5

     total cpu time spent up to now is        5.0 secs

     total energy              =    -658.21887911 Ry
     estimated scf accuracy    <       0.54247965 Ry

     total magnetization       =     6.38 Bohr mag/cell
     absolute magnetization    =     6.46 Bohr mag/cell

     iteration #  2     ecut=    90.00 Ry     beta= 0.20
     Davidson diagonalization with overlap

---- Real-time Memory Report at c_bands before calling an iterative solver
           321 MiB given to the printing process from OS
           248 MiB allocation reported by mallinfo(arena+hblkhd)
        439544 MiB available memory on the node where the printing process lives
------------------
     ethr =  1.70E-03,  avg # of iterations =  1.2

     negative rho (up, down):  0.000E+00 6.567E-04

     total cpu time spent up to now is        7.4 secs

     total energy              =    -658.47265056 Ry
     estimated scf accuracy    <       0.36613964 Ry

     total magnetization       =     6.21 Bohr mag/cell
     absolute magnetization    =     6.32 Bohr mag/cell

     iteration #  3     ecut=    90.00 Ry     beta= 0.20
     Davidson diagonalization with overlap

---- Real-time Memory Report at c_bands before calling an iterative solver
           321 MiB given to the printing process from OS
           248 MiB allocation reported by mallinfo(arena+hblkhd)
        439542 MiB available memory on the node where the printing process lives
------------------
     ethr =  1.14E-03,  avg # of iterations =  1.6

     negative rho (up, down):  0.000E+00 7.371E-04

     total cpu time spent up to now is       10.0 secs

     total energy              =    -658.54901222 Ry
     estimated scf accuracy    <       0.05112926 Ry

     total magnetization       =     5.11 Bohr mag/cell
     absolute magnetization    =     5.43 Bohr mag/cell

     iteration #  4     ecut=    90.00 Ry     beta= 0.20
     Davidson diagonalization with overlap

---- Real-time Memory Report at c_bands before calling an iterative solver
           321 MiB given to the printing process from OS
           248 MiB allocation reported by mallinfo(arena+hblkhd)
        439541 MiB available memory on the node where the printing process lives
------------------
     ethr =  1.60E-04,  avg # of iterations =  2.6

     negative rho (up, down):  0.000E+00 6.148E-04

     total cpu time spent up to now is       12.7 secs

     total energy              =    -658.53270810 Ry
     estimated scf accuracy    <       0.11146190 Ry

     total magnetization       =     5.12 Bohr mag/cell
     absolute magnetization    =     5.43 Bohr mag/cell

     iteration #  5     ecut=    90.00 Ry     beta= 0.20
     Davidson diagonalization with overlap

---- Real-time Memory Report at c_bands before calling an iterative solver
           322 MiB given to the printing process from OS
           248 MiB allocation reported by mallinfo(arena+hblkhd)
        439540 MiB available memory on the node where the printing process lives
------------------
     ethr =  1.60E-04,  avg # of iterations =  1.7

     negative rho (up, down):  0.000E+00 4.808E-04

     total cpu time spent up to now is       15.3 secs

     total energy              =    -658.53782774 Ry
     estimated scf accuracy    <       0.03104743 Ry

     total magnetization       =     5.04 Bohr mag/cell
     absolute magnetization    =     5.34 Bohr mag/cell

     iteration #  6     ecut=    90.00 Ry     beta= 0.20
     Davidson diagonalization with overlap

---- Real-time Memory Report at c_bands before calling an iterative solver
           322 MiB given to the printing process from OS
           248 MiB allocation reported by mallinfo(arena+hblkhd)
        439543 MiB available memory on the node where the printing process lives
------------------
     ethr =  9.70E-05,  avg # of iterations =  1.0

     negative rho (up, down):  0.000E+00 2.596E-04

     total cpu time spent up to now is       17.7 secs

     total energy              =    -658.53392789 Ry
     estimated scf accuracy    <       0.03171975 Ry

     total magnetization       =     5.06 Bohr mag/cell
     absolute magnetization    =     5.35 Bohr mag/cell

     iteration #  7     ecut=    90.00 Ry     beta= 0.20
     Davidson diagonalization with overlap

---- Real-time Memory Report at c_bands before calling an iterative solver
           322 MiB given to the printing process from OS
           249 MiB allocation reported by mallinfo(arena+hblkhd)
        439539 MiB available memory on the node where the printing process lives
------------------
     ethr =  9.70E-05,  avg # of iterations =  1.3

     negative rho (up, down):  0.000E+00 1.376E-04

     total cpu time spent up to now is       20.2 secs

     total energy              =    -658.53277017 Ry
     estimated scf accuracy    <       0.00943201 Ry

     total magnetization       =     4.94 Bohr mag/cell
     absolute magnetization    =     5.22 Bohr mag/cell

     iteration #  8     ecut=    90.00 Ry     beta= 0.20
     Davidson diagonalization with overlap

---- Real-time Memory Report at c_bands before calling an iterative solver
           322 MiB given to the printing process from OS
           249 MiB allocation reported by mallinfo(arena+hblkhd)
        439538 MiB available memory on the node where the printing process lives
------------------
     ethr =  2.95E-05,  avg # of iterations =  2.5

     negative rho (up, down):  0.000E+00 1.416E-04

     total cpu time spent up to now is       23.1 secs

     total energy              =    -658.53835279 Ry
     estimated scf accuracy    <       0.00698025 Ry

     total magnetization       =     4.54 Bohr mag/cell
     absolute magnetization    =     4.84 Bohr mag/cell

     iteration #  9     ecut=    90.00 Ry     beta= 0.20
     Davidson diagonalization with overlap

---- Real-time Memory Report at c_bands before calling an iterative solver
           322 MiB given to the printing process from OS
           249 MiB allocation reported by mallinfo(arena+hblkhd)
        439537 MiB available memory on the node where the printing process lives
------------------
     ethr =  2.18E-05,  avg # of iterations =  1.1

     negative rho (up, down):  0.000E+00 1.254E-04

     total cpu time spent up to now is       25.5 secs

     total energy              =    -658.53960789 Ry
     estimated scf accuracy    <       0.00891719 Ry

     total magnetization       =     4.60 Bohr mag/cell
     absolute magnetization    =     4.90 Bohr mag/cell

     iteration # 10     ecut=    90.00 Ry     beta= 0.20
     Davidson diagonalization with overlap

---- Real-time Memory Report at c_bands before calling an iterative solver
           322 MiB given to the printing process from OS
           249 MiB allocation reported by mallinfo(arena+hblkhd)
        439535 MiB available memory on the node where the printing process lives
------------------
     ethr =  2.18E-05,  avg # of iterations =  1.0

     negative rho (up, down):  0.000E+00 8.969E-05

     total cpu time spent up to now is       27.9 secs

     total energy              =    -658.53694935 Ry
     estimated scf accuracy    <       0.01059938 Ry

     total magnetization       =     4.52 Bohr mag/cell
     absolute magnetization    =     4.81 Bohr mag/cell

     iteration # 11     ecut=    90.00 Ry     beta= 0.20
     Davidson diagonalization with overlap

---- Real-time Memory Report at c_bands before calling an iterative solver
           322 MiB given to the printing process from OS
           249 MiB allocation reported by mallinfo(arena+hblkhd)
        439534 MiB available memory on the node where the printing process lives
------------------
     ethr =  2.18E-05,  avg # of iterations =  2.5

     negative rho (up, down):  0.000E+00 9.399E-05

     total cpu time spent up to now is       30.7 secs

     total energy              =    -658.53882279 Ry
     estimated scf accuracy    <       0.00035555 Ry

     total magnetization       =     4.41 Bohr mag/cell
     absolute magnetization    =     4.67 Bohr mag/cell

     iteration # 12     ecut=    90.00 Ry     beta= 0.20
     Davidson diagonalization with overlap

---- Real-time Memory Report at c_bands before calling an iterative solver
           322 MiB given to the printing process from OS
           249 MiB allocation reported by mallinfo(arena+hblkhd)
        439534 MiB available memory on the node where the printing process lives
------------------
     ethr =  1.11E-06,  avg # of iterations =  2.8

     negative rho (up, down):  0.000E+00 1.068E-04

     total cpu time spent up to now is       33.7 secs

     total energy              =    -658.53871766 Ry
     estimated scf accuracy    <       0.00001751 Ry

     total magnetization       =     4.43 Bohr mag/cell
     absolute magnetization    =     4.69 Bohr mag/cell

     iteration # 13     ecut=    90.00 Ry     beta= 0.20
     Davidson diagonalization with overlap

---- Real-time Memory Report at c_bands before calling an iterative solver
           322 MiB given to the printing process from OS
           249 MiB allocation reported by mallinfo(arena+hblkhd)
        439534 MiB available memory on the node where the printing process lives
------------------
     ethr =  5.47E-08,  avg # of iterations =  3.7

     negative rho (up, down):  0.000E+00 9.449E-05

     total cpu time spent up to now is       37.4 secs

     total energy              =    -658.53871046 Ry
     estimated scf accuracy    <       0.00038502 Ry

     total magnetization       =     4.47 Bohr mag/cell
     absolute magnetization    =     4.74 Bohr mag/cell

     iteration # 14     ecut=    90.00 Ry     beta= 0.20
     Davidson diagonalization with overlap

---- Real-time Memory Report at c_bands before calling an iterative solver
           322 MiB given to the printing process from OS
           249 MiB allocation reported by mallinfo(arena+hblkhd)
        439534 MiB available memory on the node where the printing process lives
------------------
     ethr =  5.47E-08,  avg # of iterations =  4.0

     negative rho (up, down):  0.000E+00 9.817E-05

     total cpu time spent up to now is       41.2 secs

     total energy              =    -658.53892619 Ry
     estimated scf accuracy    <       0.00001175 Ry

     total magnetization       =     4.42 Bohr mag/cell
     absolute magnetization    =     4.67 Bohr mag/cell

     iteration # 15     ecut=    90.00 Ry     beta= 0.20
     Davidson diagonalization with overlap

---- Real-time Memory Report at c_bands before calling an iterative solver
           322 MiB given to the printing process from OS
           249 MiB allocation reported by mallinfo(arena+hblkhd)
        439534 MiB available memory on the node where the printing process lives
------------------
     ethr =  3.67E-08,  avg # of iterations =  2.2

     negative rho (up, down):  0.000E+00 9.867E-05

     total cpu time spent up to now is       43.9 secs

     total energy              =    -658.53893714 Ry
     estimated scf accuracy    <       0.00000083 Ry

     total magnetization       =     4.44 Bohr mag/cell
     absolute magnetization    =     4.69 Bohr mag/cell

     iteration # 16     ecut=    90.00 Ry     beta= 0.20
     Davidson diagonalization with overlap

---- Real-time Memory Report at c_bands before calling an iterative solver
           322 MiB given to the printing process from OS
           249 MiB allocation reported by mallinfo(arena+hblkhd)
        439534 MiB available memory on the node where the printing process lives
------------------
     ethr =  2.58E-09,  avg # of iterations =  1.8

     negative rho (up, down):  0.000E+00 9.830E-05

     total cpu time spent up to now is       46.5 secs

     total energy              =    -658.53893722 Ry
     estimated scf accuracy    <       0.00000051 Ry

     total magnetization       =     4.44 Bohr mag/cell
     absolute magnetization    =     4.69 Bohr mag/cell

     iteration # 17     ecut=    90.00 Ry     beta= 0.20
     Davidson diagonalization with overlap

---- Real-time Memory Report at c_bands before calling an iterative solver
           322 MiB given to the printing process from OS
           249 MiB allocation reported by mallinfo(arena+hblkhd)
        439535 MiB available memory on the node where the printing process lives
------------------
     ethr =  1.60E-09,  avg # of iterations =  2.3

     negative rho (up, down):  0.000E+00 9.791E-05

     total cpu time spent up to now is       49.3 secs

     total energy              =    -658.53893759 Ry
     estimated scf accuracy    <       0.00000018 Ry

     total magnetization       =     4.43 Bohr mag/cell
     absolute magnetization    =     4.69 Bohr mag/cell

     iteration # 18     ecut=    90.00 Ry     beta= 0.20
     Davidson diagonalization with overlap

---- Real-time Memory Report at c_bands before calling an iterative solver
           322 MiB given to the printing process from OS
           249 MiB allocation reported by mallinfo(arena+hblkhd)
        439950 MiB available memory on the node where the printing process lives
------------------
     ethr =  5.67E-10,  avg # of iterations =  1.9

     negative rho (up, down):  0.000E+00 9.812E-05

     total cpu time spent up to now is       52.0 secs

     total energy              =    -658.53893769 Ry
     estimated scf accuracy    <       0.00000005 Ry

     total magnetization       =     4.43 Bohr mag/cell
     absolute magnetization    =     4.69 Bohr mag/cell

     iteration # 19     ecut=    90.00 Ry     beta= 0.20
     Davidson diagonalization with overlap

---- Real-time Memory Report at c_bands before calling an iterative solver
           322 MiB given to the printing process from OS
           249 MiB allocation reported by mallinfo(arena+hblkhd)
        439963 MiB available memory on the node where the printing process lives
------------------
     ethr =  1.65E-10,  avg # of iterations =  1.9

     negative rho (up, down):  0.000E+00 9.800E-05

     total cpu time spent up to now is       54.6 secs

     total energy              =    -658.53893774 Ry
     estimated scf accuracy    <       0.00000002 Ry

     total magnetization       =     4.43 Bohr mag/cell
     absolute magnetization    =     4.69 Bohr mag/cell

     iteration # 20     ecut=    90.00 Ry     beta= 0.20
     Davidson diagonalization with overlap

---- Real-time Memory Report at c_bands before calling an iterative solver
           322 MiB given to the printing process from OS
           249 MiB allocation reported by mallinfo(arena+hblkhd)
        439964 MiB available memory on the node where the printing process lives
------------------
     ethr =  5.38E-11,  avg # of iterations =  2.2

     negative rho (up, down):  0.000E+00 9.806E-05

     total cpu time spent up to now is       57.5 secs

     total energy              =    -658.53893774 Ry
     estimated scf accuracy    <       0.00000002 Ry

     total magnetization       =     4.43 Bohr mag/cell
     absolute magnetization    =     4.69 Bohr mag/cell

     iteration # 21     ecut=    90.00 Ry     beta= 0.20
     Davidson diagonalization with overlap

---- Real-time Memory Report at c_bands before calling an iterative solver
           322 MiB given to the printing process from OS
           249 MiB allocation reported by mallinfo(arena+hblkhd)
        439964 MiB available memory on the node where the printing process lives
------------------
     ethr =  5.38E-11,  avg # of iterations =  2.2

     negative rho (up, down):  0.000E+00 9.803E-05

     Magnetic moment per site  (integrated on atomic sphere of radius R)
     atom   1 (R=0.357)  charge= 14.4209  magn=  2.2714
     atom   2 (R=0.357)  charge= 14.4210  magn=  2.2715

     total cpu time spent up to now is       60.2 secs

     End of self-consistent calculation

 ------ SPIN UP ------------


          k = 0.0000 0.0000 0.0000 (  2301 PWs)   bands (ev):

   -70.5996 -70.4826 -36.6860 -36.6860 -36.6860 -36.4240 -36.4240 -36.4240
     9.1529  12.7936  12.7936  15.2345  15.2345  15.2345  16.3651  16.3651
    17.5444  17.5444  17.5444  27.0417

     occupation numbers 
     1.0000   1.0000   1.0000   1.0000   1.0000   1.0000   1.0000   1.0000
     1.0000   1.0000   1.0000   1.0000   1.0000   1.0000   1.0000   1.0000
     0.0712   0.0712   0.0712   0.0000

          k = 0.0000 0.0000 0.0625 (  2309 PWs)   bands (ev):

   -70.5983 -70.4836 -36.6856 -36.6834 -36.6834 -36.4286 -36.4263 -36.4263
     9.2320  12.8265  12.8275  15.2338  15.2338  15.2557  16.3307  16.3788
    17.4783  17.4783  17.5212  26.4605

     occupation numbers 
     1.0000   1.0000   1.0000   1.0000   1.0000   1.0000   1.0000   1.0000
     1.0000   1.0000   1.0000   1.0000   1.0000   1.0000   1.0000   1.0000
     0.2495   0.2495   0.1163   0.0000

          k = 0.0000 0.0000 0.1250 (  2285 PWs)   bands (ev):

   -70.5945 -70.4865 -36.6842 -36.6755 -36.6755 -36.4422 -36.4333 -36.4333
     9.4669  12.9239  12.9245  15.2338  15.2338  15.3186  16.2288  16.4185
    17.2950  17.2950  17.4526  25.1494

     occupation numbers 
     1.0000   1.0000   1.0000   1.0000   1.0000   1.0000   1.0000   1.0000
     1.0000   1.0000   1.0000   1.0000   1.0000   1.0000   1.0000   1.0000
     1.0530   1.0530   0.3623   0.0000

          k = 0.0000 0.0000 0.1875 (  2296 PWs)   bands (ev):

   -70.5885 -70.4912 -36.6812 -36.6628 -36.6628 -36.4635 -36.4449 -36.4449
     9.8491  13.0650  13.0844  15.2395  15.2395  15.4209  16.0625  16.4825
    17.0299  17.0299  17.3416  23.6128

     occupation numbers 
     1.0000   1.0000   1.0000   1.0000   1.0000   1.0000   1.0000   1.0000
     1.0000   1.0000   1.0000   1.0000   1.0000   1.0000   1.0000   1.0000
     1.0012   1.0012   0.9268   0.0000

          k = 0.0000 0.0000 0.2500 (  2284 PWs)   bands (ev):

   -70.5804 -70.4976 -36.6755 -36.6458 -36.6458 -36.4906 -36.4604 -36.4604
    10.3632  13.2213  13.3010  15.2592  15.2592  15.5594  15.8380  16.5701
    16.7244  16.7244  17.1930  22.0698

     occupation numbers 
     1.0000   1.0000   1.0000   1.0000   1.0000   1.0000   1.0000   1.0000
     1.0000   1.0000   1.0000   1.0000   1.0000   1.0000   1.0000   1.0000
     1.0000   1.0000   1.0550   0.0000

          k = 0.0000 0.0000 0.3125 (  2304 PWs)   bands (ev):

   -70.5707 -70.5057 -36.6664 -36.6252 -36.6252 -36.5212 -36.4796 -36.4796
    10.9829  13.3479  13.5668  15.3023  15.3023  15.5635  15.7293  16.4131
    16.4131  16.6871  17.0129  20.6243

     occupation numbers 
     1.0000   1.0000   1.0000   1.0000   1.0000   1.0000   1.0000   1.0000
     1.0000   1.0000   1.0000   1.0000   1.0000   1.0000   1.0000   1.0000
     1.0000   1.0000   1.0007   0.0000

          k = 0.0000 0.0000 0.3750 (  2308 PWs)   bands (ev):

   -70.5599 -70.5151 -36.6529 -36.6020 -36.6020 -36.5529 -36.5017 -36.5017
    11.6641  13.3824  13.8727  15.2499  15.3781  15.3781  15.9246  16.1218
    16.1218  16.8088  16.8555  19.3510

     occupation numbers 
     1.0000   1.0000   1.0000   1.0000   1.0000   1.0000   1.0000   1.0000
     1.0000   1.0000   1.0000   1.0000   1.0000   1.0000   1.0000   1.0000
     1.0000   1.0000   1.0000   0.0000

          k = 0.0000 0.0000 0.4375 (  2292 PWs)   bands (ev):

   -70.5485 -70.5256 -36.6344 -36.5834 -36.5770 -36.5770 -36.5258 -36.5258
    12.3352  13.2500  14.2073  14.9102  15.4945  15.4945  15.8668  15.8668
    16.1386  16.5892  17.1267  18.3217

     occupation numbers 
     1.0000   1.0000   1.0000   1.0000   1.0000   1.0000   1.0000   1.0000
     1.0000   1.0000   1.0000   1.0000   1.0000   1.0000   1.0000   1.0000
     1.0000   1.0000   1.0174   0.0000

          k = 0.0000 0.0000-0.5000 (  2272 PWs)   bands (ev):

   -70.5370 -70.5368 -36.6111 -36.6110 -36.5513 -36.5513 -36.5511 -36.5511
    12.8948  12.8948  14.5577  14.5579  15.6568  15.6568  15.6569  15.6569
    16.3629  16.3631  17.5867  17.5868

     occupation numbers 
     1.0000   1.0000   1.0000   1.0000   1.0000   1.0000   1.0000   1.0000
     1.0000   1.0000   1.0000   1.0000   1.0000   1.0000   1.0000   1.0000
     1.0000   1.0000   0.0253   0.0252

          k = 0.0000 0.0625 0.0625 (  2299 PWs)   bands (ev):

   -70.5971 -70.4845 -36.6898 -36.6807 -36.6762 -36.4380 -36.4287 -36.4239
     9.3107  12.8588  12.8617  15.1925  15.2313  15.3175  16.3235  16.3685
    17.3604  17.4123  17.5541  26.7211

     occupation numbers 
     1.0000   1.0000   1.0000   1.0000   1.0000   1.0000   1.0000   1.0000
     1.0000   1.0000   1.0000   1.0000   1.0000   1.0000   1.0000   1.0000
     0.8470   0.5746   0.0572   0.0000

          k = 0.0000 0.0625 0.1250 (  2296 PWs)   bands (ev):

   -70.5933 -70.4873 -36.6923 -36.6730 -36.6647 -36.4553 -36.4356 -36.4270
     9.5440  12.9525  12.9607  15.1590  15.2256  15.4129  16.2386  16.4009
    17.1440  17.2294  17.5294  25.2546

     occupation numbers 
     1.0000   1.0000   1.0000   1.0000   1.0000   1.0000   1.0000   1.0000
     1.0000   1.0000   1.0000   1.0000   1.0000   1.0000   1.0000   1.0000
     1.0249   1.0775   0.0983   0.0000

          k = 0.0000 0.0625 0.1875 (  2292 PWs)   bands (ev):

   -70.5874 -70.4920 -36.6919 -36.6605 -36.6498 -36.4788 -36.4468 -36.4357
     9.9233  13.0953  13.1161  15.1429  15.2215  15.5362  16.0880  16.4660
    16.8674  16.9670  17.4445  23.7148

     occupation numbers 
     1.0000   1.0000   1.0000   1.0000   1.0000   1.0000   1.0000   1.0000
     1.0000   1.0000   1.0000   1.0000   1.0000   1.0000   1.0000   1.0000
     1.0000   1.0001   0.4020   0.0000

          k = 0.0000 0.0625 0.2500 (  2292 PWs)   bands (ev):

   -70.5794 -70.4983 -36.6882 -36.6438 -36.6315 -36.5072 -36.4621 -36.4493
    10.4327  13.2527  13.3262  15.1480  15.2222  15.6876  15.8906  16.5551
    16.5611  16.6684  17.3117  22.1666

     occupation numbers 
     1.0000   1.0000   1.0000   1.0000   1.0000   1.0000   1.0000   1.0000
     1.0000   1.0000   1.0000   1.0000   1.0000   1.0000   1.0000   1.0000
     1.0000   1.0000   1.0201   0.0000

          k = 0.0000 0.0625 0.3125 (  2298 PWs)   bands (ev):

   -70.5699 -70.5061 -36.6805 -36.6237 -36.6102 -36.5384 -36.4808 -36.4671
    11.0451  13.3779  13.5845  15.1809  15.2125  15.6801  15.8651  16.2540
    16.3717  16.6733  17.1415  20.7129

     occupation numbers 
     1.0000   1.0000   1.0000   1.0000   1.0000   1.0000   1.0000   1.0000
     1.0000   1.0000   1.0000   1.0000   1.0000   1.0000   1.0000   1.0000
     1.0000   1.0000   1.0236   0.0000

          k = 0.0000 0.0625 0.3750 (  2295 PWs)   bands (ev):

   -70.5593 -70.5154 -36.6680 -36.6008 -36.5867 -36.5702 -36.5024 -36.4881
    11.7160  13.4087  13.8806  15.1070  15.2490  15.5601  15.9683  16.0646
    16.1058  16.8450  16.9438  19.4257

     occupation numbers 
     1.0000   1.0000   1.0000   1.0000   1.0000   1.0000   1.0000   1.0000
     1.0000   1.0000   1.0000   1.0000   1.0000   1.0000   1.0000   1.0000
     1.0000   1.0000   1.0000   0.0000

          k = 0.0000 0.0625 0.4375 (  2304 PWs)   bands (ev):

   -70.5481 -70.5257 -36.6504 -36.6005 -36.5763 -36.5618 -36.5262 -36.5115
    12.3739  13.2733  14.2020  14.8512  15.3589  15.5988  15.7193  15.8876
    16.2799  16.7282  17.1270  18.3736

     occupation numbers 
     1.0000   1.0000   1.0000   1.0000   1.0000   1.0000   1.0000   1.0000
     1.0000   1.0000   1.0000   1.0000   1.0000   1.0000   1.0000   1.0000
     1.0000   1.0000   1.0175   0.0000

          k = 0.0000 0.0625-0.5000 (  2302 PWs)   bands (ev):

   -70.5368 -70.5366 -36.6278 -36.6277 -36.5512 -36.5510 -36.5365 -36.5364
    12.9219  12.9219  14.5331  14.5332  15.5152  15.5153  15.7189  15.7191
    16.5038  16.5040  17.6099  17.6100

     occupation numbers 
     1.0000   1.0000   1.0000   1.0000   1.0000   1.0000   1.0000   1.0000
     1.0000   1.0000   1.0000   1.0000   1.0000   1.0000   1.0000   1.0000
     1.0000   1.0000   0.0133   0.0132

          k = 0.0000 0.1250 0.1250 (  2295 PWs)   bands (ev):

   -70.5898 -70.4900 -36.7007 -36.6657 -36.6481 -36.4778 -36.4420 -36.4239
     9.7722  13.0347  13.0663  15.0740  15.2048  15.5583  16.2351  16.3794
    16.8801  17.0498  17.5817  25.2565

     occupation numbers 
     1.0000   1.0000   1.0000   1.0000   1.0000   1.0000   1.0000   1.0000
     1.0000   1.0000   1.0000   1.0000   1.0000   1.0000   1.0000   1.0000
     1.0000   1.0023   0.0289   0.0000

          k = 0.0000 0.1250 0.1875 (  2297 PWs)   bands (ev):

   -70.5841 -70.4943 -36.7059 -36.6539 -36.6288 -36.5057 -36.4526 -36.4268
    10.1422  13.1610  13.2286  15.0110  15.1788  15.7250  16.1473  16.4244
    16.5747  16.7979  17.5651  23.9542

     occupation numbers 
     1.0000   1.0000   1.0000   1.0000   1.0000   1.0000   1.0000   1.0000
     1.0000   1.0000   1.0000   1.0000   1.0000   1.0000   1.0000   1.0000
     1.0000   1.0000   0.0439   0.0000

          k = 0.0000 0.1250 0.2500 (  2293 PWs)   bands (ev):

   -70.5766 -70.5001 -36.7071 -36.6381 -36.6074 -36.5371 -36.4669 -36.4355
    10.6364  13.3070  13.4336  14.9765  15.1499  15.9107  16.0094  16.2566
    16.5129  16.5228  17.4862  22.4161

     occupation numbers 
     1.0000   1.0000   1.0000   1.0000   1.0000   1.0000   1.0000   1.0000
     1.0000   1.0000   1.0000   1.0000   1.0000   1.0000   1.0000   1.0000
     1.0000   1.0000   0.2199   0.0000

          k = 0.0000 0.1250 0.3125 (  2290 PWs)   bands (ev):

   -70.5676 -70.5075 -36.7035 -36.6190 -36.5842 -36.5700 -36.4845 -36.4490
    11.2250  13.4241  13.6737  14.9768  15.1008  15.8752  15.9492  16.1131
    16.2694  16.6330  17.3559  20.9474

     occupation numbers 
     1.0000   1.0000   1.0000   1.0000   1.0000   1.0000   1.0000   1.0000
     1.0000   1.0000   1.0000   1.0000   1.0000   1.0000   1.0000   1.0000
     1.0000   1.0000   0.8675   0.0000

          k = 0.0000 0.1250 0.3750 (  2299 PWs)   bands (ev):

   -70.5576 -70.5162 -36.6944 -36.6026 -36.5975 -36.5598 -36.5048 -36.4667
    11.8608  13.4455  13.9435  14.9874  15.0181  15.6707  15.8032  16.0719
    16.3282  16.8132  17.1863  19.6263

     occupation numbers 
     1.0000   1.0000   1.0000   1.0000   1.0000   1.0000   1.0000   1.0000
     1.0000   1.0000   1.0000   1.0000   1.0000   1.0000   1.0000   1.0000
     1.0000   1.0000   1.0503   0.0000

          k = 0.0000 0.1250 0.4375 (  2299 PWs)   bands (ev):

   -70.5469 -70.5258 -36.6794 -36.6326 -36.5743 -36.5350 -36.5271 -36.4875
    12.4735  13.3079  14.2317  14.7848  15.1061  15.4333  15.8134  15.9434
    16.5507  16.9887  17.1278  18.5166

     occupation numbers 
     1.0000   1.0000   1.0000   1.0000   1.0000   1.0000   1.0000   1.0000
     1.0000   1.0000   1.0000   1.0000   1.0000   1.0000   1.0000   1.0000
     1.0000   1.0003   1.0178   0.0000

          k = 0.0000 0.1250-0.5000 (  2290 PWs)   bands (ev):

   -70.5363 -70.5361 -36.6587 -36.6586 -36.5507 -36.5505 -36.5106 -36.5105
    12.9781  12.9781  14.5207  14.5208  15.2442  15.2442  15.8656  15.8657
    16.7736  16.7737  17.6769  17.6770

     occupation numbers 
     1.0000   1.0000   1.0000   1.0000   1.0000   1.0000   1.0000   1.0000
     1.0000   1.0000   1.0000   1.0000   1.0000   1.0000   1.0000   1.0000
     1.0000   1.0000   0.0015   0.0015

          k = 0.0000 0.1875 0.1875 (  2295 PWs)   bands (ev):

   -70.5789 -70.4980 -36.7170 -36.6432 -36.6059 -36.5371 -36.4620 -36.4238
    10.4946  13.2530  13.4072  14.9003  15.1326  15.9333  16.1847  16.2501
    16.3996  16.5704  17.6232  23.8380

     occupation numbers 
     1.0000   1.0000   1.0000   1.0000   1.0000   1.0000   1.0000   1.0000
     1.0000   1.0000   1.0000   1.0000   1.0000   1.0000   1.0000   1.0000
     1.0000   1.0000   0.0090   0.0000

          k = 0.0000 0.1875 0.2500 (  2295 PWs)   bands (ev):

   -70.5721 -70.5033 -36.7238 -36.6289 -36.5817 -36.5711 -36.4747 -36.4266
    10.9591  13.3521  13.6303  14.8218  15.0954  15.9252  16.1375  16.1535
    16.3397  16.4564  17.6126  22.6569

     occupation numbers 
     1.0000   1.0000   1.0000   1.0000   1.0000   1.0000   1.0000   1.0000
     1.0000   1.0000   1.0000   1.0000   1.0000   1.0000   1.0000   1.0000
     1.0000   1.0000   0.0123   0.0000

          k = 0.0000 0.1875 0.3125 (  2289 PWs)   bands (ev):

   -70.5639 -70.5098 -36.7252 -36.6116 -36.6055 -36.5569 -36.4905 -36.4350
    11.5005  13.4214  13.8778  14.7830  15.0585  15.6209  16.0662  16.1553
    16.3811  16.5704  17.5398  21.2332

     occupation numbers 
     1.0000   1.0000   1.0000   1.0000   1.0000   1.0000   1.0000   1.0000
[...]
     0.0000   0.0000   0.0000   0.0000

          k = 0.2500 0.4375 0.4375 (  2314 PWs)   bands (ev):

   -67.8496 -67.8462 -34.1335 -34.1328 -33.9772 -33.9484 -33.8503 -33.8455
    14.7278  14.8686  15.7810  15.8033  16.4310  16.5364  19.1675  19.2096
    19.4305  19.4327  21.9954  22.7596

     occupation numbers 
     1.0000   1.0000   1.0000   1.0000   1.0000   1.0000   1.0000   1.0000
     1.0000   1.0000   1.0000   1.0000   1.0000   1.0000   0.0000   0.0000
     0.0000   0.0000   0.0000   0.0000

          k = 0.2500 0.4375-0.5000 (  2310 PWs)   bands (ev):

   -67.8478 -67.8477 -34.1349 -34.1349 -33.9618 -33.9618 -33.8491 -33.8491
    14.7960  14.7961  15.7705  15.7705  16.5545  16.5545  19.2044  19.2044
    19.4417  19.4418  22.4283  22.4283

     occupation numbers 
     1.0000   1.0000   1.0000   1.0000   1.0000   1.0000   1.0000   1.0000
     1.0000   1.0000   1.0000   1.0000   1.0000   1.0000   0.0000   0.0000
     0.0000   0.0000   0.0000   0.0000

          k = 0.2500-0.5000-0.5000 (  2300 PWs)   bands (ev):

   -67.8476 -67.8475 -34.1364 -34.1364 -33.9603 -33.9603 -33.8509 -33.8509
    14.7895  14.7895  15.7482  15.7482  16.6313  16.6313  19.2249  19.2249
    19.4491  19.4491  22.5455  22.5455

     occupation numbers 
     1.0000   1.0000   1.0000   1.0000   1.0000   1.0000   1.0000   1.0000
     1.0000   1.0000   1.0000   1.0000   1.0000   1.0000   0.0000   0.0000
     0.0000   0.0000   0.0000   0.0000

          k = 0.3125 0.3125 0.3125 (  2293 PWs)   bands (ev):

   -67.8606 -67.8387 -34.1061 -34.0777 -34.0777 -33.8729 -33.8729 -33.8450
    14.0366  15.5470  15.9373  15.9373  15.9490  15.9490  19.1693  19.1693
    19.2527  19.2527  20.6783  25.1062

     occupation numbers 
     1.0000   1.0000   1.0000   1.0000   1.0000   1.0000   1.0000   1.0000
     1.0000   1.0000   1.0000   1.0000   1.0000   1.0000   0.0000   0.0000
     0.0000   0.0000   0.0000   0.0000

          k = 0.3125 0.3125 0.3750 (  2303 PWs)   bands (ev):

   -67.8564 -67.8413 -34.1135 -34.0964 -34.0452 -33.9040 -33.8657 -33.8442
    14.4529  15.3682  15.8711  15.8739  15.9168  16.0975  19.1221  19.2171
    19.2934  19.3490  21.1405  24.0913

     occupation numbers 
     1.0000   1.0000   1.0000   1.0000   1.0000   1.0000   1.0000   1.0000
     1.0000   1.0000   1.0000   1.0000   1.0000   1.0000   0.0000   0.0000
     0.0000   0.0000   0.0000   0.0000

          k = 0.3125 0.3125 0.4375 (  2309 PWs)   bands (ev):

   -67.8522 -67.8445 -34.1175 -34.1094 -34.0101 -33.9381 -33.8583 -33.8466
    14.7752  15.1813  15.8249  15.8250  15.9967  16.1749  19.1178  19.1774
    19.3763  19.4082  21.6675  23.1255

     occupation numbers 
     1.0000   1.0000   1.0000   1.0000   1.0000   1.0000   1.0000   1.0000
     1.0000   1.0000   1.0000   1.0000   1.0000   1.0000   0.0000   0.0000
     0.0000   0.0000   0.0000   0.0000

          k = 0.3125 0.3125-0.5000 (  2314 PWs)   bands (ev):

   -67.8481 -67.8481 -34.1164 -34.1164 -33.9740 -33.9739 -33.8516 -33.8516
    14.9987  14.9987  15.8082  15.8082  16.1215  16.1216  19.1408  19.1408
    19.4169  19.4169  22.3154  22.3154

     occupation numbers 
     1.0000   1.0000   1.0000   1.0000   1.0000   1.0000   1.0000   1.0000
     1.0000   1.0000   1.0000   1.0000   1.0000   1.0000   0.0000   0.0000
     0.0000   0.0000   0.0000   0.0000

          k = 0.3125 0.3750 0.3750 (  2312 PWs)   bands (ev):

   -67.8532 -67.8429 -34.1148 -34.0921 -34.0372 -33.9158 -33.8770 -33.8488
    14.8003  15.3056  15.8048  15.8724  15.8828  16.1090  19.1915  19.2718
    19.3263  19.3702  21.6409  24.2498

     occupation numbers 
     1.0000   1.0000   1.0000   1.0000   1.0000   1.0000   1.0000   1.0000
     1.0000   1.0000   1.0000   1.0000   1.0000   1.0000   0.0000   0.0000
     0.0000   0.0000   0.0000   0.0000

          k = 0.3125 0.3750 0.4375 (  2312 PWs)   bands (ev):

   -67.8502 -67.8449 -34.1138 -34.1012 -34.0091 -33.9434 -33.8732 -33.8561
    15.0098  15.2071  15.7667  15.8096  15.9882  16.1729  19.2167  19.2639
    19.3910  19.4153  22.1945  23.5997

     occupation numbers 
     1.0000   1.0000   1.0000   1.0000   1.0000   1.0000   1.0000   1.0000
     1.0000   1.0000   1.0000   1.0000   1.0000   1.0000   0.0000   0.0000
     0.0000   0.0000   0.0000   0.0000

          k = 0.3125 0.3750-0.5000 (  2306 PWs)   bands (ev):

   -67.8474 -67.8473 -34.1094 -34.1094 -33.9761 -33.9761 -33.8649 -33.8649
    15.1180  15.1180  15.7685  15.7685  16.1271  16.1271  19.2405  19.2405
    19.4261  19.4261  22.8456  22.8456

     occupation numbers 
     1.0000   1.0000   1.0000   1.0000   1.0000   1.0000   1.0000   1.0000
     1.0000   1.0000   1.0000   1.0000   1.0000   1.0000   0.0000   0.0000
     0.0000   0.0000   0.0000   0.0000

          k = 0.3125 0.4375 0.4375 (  2312 PWs)   bands (ev):

   -67.8483 -67.8456 -34.1102 -34.1017 -33.9947 -33.9549 -33.8797 -33.8668
    15.1027  15.1704  15.7206  15.7540  16.1263  16.2501  19.2717  19.2994
    19.4246  19.4365  22.7397  23.6913

     occupation numbers 
     1.0000   1.0000   1.0000   1.0000   1.0000   1.0000   1.0000   1.0000
     1.0000   1.0000   1.0000   1.0000   1.0000   1.0000   0.0000   0.0000
     0.0000   0.0000   0.0000   0.0000

          k = 0.3125 0.4375-0.5000 (  2308 PWs)   bands (ev):

   -67.8468 -67.8468 -34.1059 -34.1059 -33.9740 -33.9740 -33.8761 -33.8761
    15.1360  15.1360  15.7158  15.7158  16.2454  16.2454  19.2964  19.2964
    19.4459  19.4460  23.2933  23.2933

     occupation numbers 
     1.0000   1.0000   1.0000   1.0000   1.0000   1.0000   1.0000   1.0000
     1.0000   1.0000   1.0000   1.0000   1.0000   1.0000   0.0000   0.0000
     0.0000   0.0000   0.0000   0.0000

          k = 0.3125-0.5000-0.5000 (  2300 PWs)   bands (ev):

   -67.8466 -67.8466 -34.1050 -34.1050 -33.9723 -33.9722 -33.8807 -33.8807
    15.1330  15.1331  15.6931  15.6931  16.3058  16.3058  19.3118  19.3118
    19.4578  19.4578  23.4959  23.4959

     occupation numbers 
     1.0000   1.0000   1.0000   1.0000   1.0000   1.0000   1.0000   1.0000
     1.0000   1.0000   1.0000   1.0000   1.0000   1.0000   0.0000   0.0000
     0.0000   0.0000   0.0000   0.0000

          k = 0.3750 0.3750 0.3750 (  2314 PWs)   bands (ev):

   -67.8508 -67.8437 -34.1076 -34.0579 -34.0579 -33.9097 -33.9097 -33.8598
    15.1692  15.3599  15.7517  15.7517  15.9473  15.9473  19.3110  19.3110
    19.3605  19.3605  22.2124  25.2076

     occupation numbers 
     1.0000   1.0000   1.0000   1.0000   1.0000   1.0000   1.0000   1.0000
     1.0000   1.0000   1.0000   1.0000   1.0000   1.0000   0.0000   0.0000
     0.0000   0.0000   0.0000   0.0000

          k = 0.3750 0.3750 0.4375 (  2307 PWs)   bands (ev):

   -67.8486 -67.8449 -34.0994 -34.0753 -34.0211 -33.9455 -33.8996 -33.8729
    15.3327  15.3457  15.7325  15.8181  15.8277  16.0180  19.3157  19.3463
    19.3949  19.4197  22.8315  24.3602

     occupation numbers 
     1.0000   1.0000   1.0000   1.0000   1.0000   1.0000   1.0000   1.0000
     1.0000   1.0000   1.0000   1.0000   1.0000   1.0000   0.0000   0.0000
     0.0000   0.0000   0.0000   0.0000

          k = 0.3750 0.3750-0.5000 (  2308 PWs)   bands (ev):

   -67.8466 -67.8465 -34.0890 -34.0890 -33.9832 -33.9831 -33.8867 -33.8867
    15.3402  15.3402  15.7560  15.7561  15.9714  15.9714  19.3298  19.3298
    19.4330  19.4330  23.5415  23.5415

     occupation numbers 
     1.0000   1.0000   1.0000   1.0000   1.0000   1.0000   1.0000   1.0000
     1.0000   1.0000   1.0000   1.0000   1.0000   1.0000   0.0000   0.0000
     0.0000   0.0000   0.0000   0.0000

          k = 0.3750 0.4375 0.4375 (  2311 PWs)   bands (ev):

   -67.8471 -67.8453 -34.0863 -34.0664 -34.0119 -33.9565 -33.9135 -33.8906
    15.3897  15.4512  15.6847  15.7738  15.8835  16.0184  19.3650  19.3820
    19.4266  19.4401  23.4908  24.6889

     occupation numbers 
     1.0000   1.0000   1.0000   1.0000   1.0000   1.0000   1.0000   1.0000
     1.0000   1.0000   1.0000   1.0000   1.0000   1.0000   0.0000   0.0000
     0.0000   0.0000   0.0000   0.0000

          k = 0.3750 0.4375-0.5000 (  2316 PWs)   bands (ev):

   -67.8460 -67.8460 -34.0745 -34.0745 -33.9840 -33.9839 -33.9062 -33.9062
    15.4235  15.4235  15.7022  15.7023  16.0015  16.0015  19.3802  19.3802
    19.4518  19.4518  24.1760  24.1760

     occupation numbers 
     1.0000   1.0000   1.0000   1.0000   1.0000   1.0000   1.0000   1.0000
     1.0000   1.0000   1.0000   1.0000   1.0000   1.0000   0.0000   0.0000
     0.0000   0.0000   0.0000   0.0000

          k = 0.3750-0.5000-0.5000 (  2308 PWs)   bands (ev):

   -67.8459 -67.8458 -34.0694 -34.0694 -33.9824 -33.9823 -33.9148 -33.9148
    15.4416  15.4417  15.6636  15.6636  16.0475  16.0475  19.3921  19.3921
    19.4652  19.4652  24.5102  24.5102

     occupation numbers 
     1.0000   1.0000   1.0000   1.0000   1.0000   1.0000   1.0000   1.0000
     1.0000   1.0000   1.0000   1.0000   1.0000   1.0000   0.0000   0.0000
     0.0000   0.0000   0.0000   0.0000

          k = 0.4375 0.4375 0.4375 (  2299 PWs)   bands (ev):

   -67.8461 -67.8452 -34.0641 -34.0284 -34.0284 -33.9505 -33.9505 -33.9146
    15.4964  15.6870  15.6870  15.7326  15.8477  15.8477  19.4322  19.4322
    19.4404  19.4404  24.2517  25.7447

     occupation numbers 
     1.0000   1.0000   1.0000   1.0000   1.0000   1.0000   1.0000   1.0000
     1.0000   1.0000   1.0000   1.0000   1.0000   1.0000   0.0000   0.0000
     0.0000   0.0000   0.0000   0.0000

          k = 0.4375 0.4375-0.5000 (  2300 PWs)   bands (ev):

   -67.8455 -67.8455 -34.0452 -34.0452 -33.9893 -33.9893 -33.9358 -33.9358
    15.5794  15.5794  15.7387  15.7387  15.8524  15.8524  19.4375  19.4375
    19.4593  19.4593  25.0310  25.0310

     occupation numbers 
     1.0000   1.0000   1.0000   1.0000   1.0000   1.0000   1.0000   1.0000
     1.0000   1.0000   1.0000   1.0000   1.0000   1.0000   0.0000   0.0000
     0.0000   0.0000   0.0000   0.0000

          k = 0.4375-0.5000-0.5000 (  2296 PWs)   bands (ev):

   -67.8453 -67.8453 -34.0310 -34.0310 -33.9891 -33.9891 -33.9522 -33.9522
    15.6577  15.6578  15.6738  15.6738  15.8582  15.8582  19.4505  19.4505
    19.4702  19.4702  25.5804  25.5804

     occupation numbers 
     1.0000   1.0000   1.0000   1.0000   1.0000   1.0000   1.0000   1.0000
     1.0000   1.0000   1.0000   1.0000   1.0000   1.0000   0.0000   0.0000
     0.0000   0.0000   0.0000   0.0000

          k =-0.5000-0.5000-0.5000 (  2320 PWs)   bands (ev):

   -67.8451 -67.8451 -33.9915 -33.9915 -33.9915 -33.9915 -33.9915 -33.9915
    15.7356  15.7356  15.7356  15.7356  15.7356  15.7356  19.4719  19.4719
    19.4719  19.4719  26.7000  26.7000

     occupation numbers 
     1.0000   1.0000   1.0000   1.0000   1.0000   1.0000   1.0000   1.0000
     1.0000   1.0000   1.0000   1.0000   1.0000   1.0000   0.0000   0.0000
     0.0000   0.0000   0.0000   0.0000

     the Fermi energy is    17.4448 ev

!    total energy              =    -658.53893775 Ry
     total all-electron energy =     -5091.132004 Ry
     estimated scf accuracy    <          3.3E-10 Ry
     smearing contrib. (-TS)   =       0.00012717 Ry
     internal energy E=F+TS    =    -658.53906491 Ry

     The total energy is F=E-TS. E is the sum of the following terms:
     one-electron contribution =    -226.16055997 Ry
     hartree contribution      =     132.46319702 Ry
     xc contribution           =     -55.47249371 Ry
     ewald contribution        =    -343.78483881 Ry
     one-center paw contrib.   =    -165.58436945 Ry
      -> PAW hartree energy AE =     182.91702141 Ry
      -> PAW hartree energy PS =    -181.61939153 Ry
      -> PAW xc energy AE      =    -110.15560876 Ry
      -> PAW xc energy PS      =      26.06579488 Ry
      -> total E_H with PAW    =     133.76082691 Ry
      -> total E_XC with PAW   =    -139.56230759 Ry

     total magnetization       =     4.43 Bohr mag/cell
     absolute magnetization    =     4.69 Bohr mag/cell

     convergence has been achieved in  21 iterations

     negative rho (up, down):  0.000E+00 9.803E-05

     Forces acting on atoms (cartesian axes, Ry/au):

     atom    1 type  1   force =     0.00000000    0.00000000    0.00000000
     atom    2 type  1   force =     0.00000000    0.00000000    0.00000000
     The non-local contrib.  to forces
     atom    1 type  1   force =     0.00000000    0.00000000    0.00000000
     atom    2 type  1   force =     0.00000000    0.00000000    0.00000000
     The ionic contribution  to forces
     atom    1 type  1   force =    -0.00000000   -0.00000000   -0.00000000
     atom    2 type  1   force =     0.00000000    0.00000000    0.00000000
     The local contribution  to forces
     atom    1 type  1   force =     0.00000000    0.00000000    0.00000000
     atom    2 type  1   force =     0.00000000    0.00000000    0.00000000
     The core correction contribution to forces
     atom    1 type  1   force =     0.00000000    0.00000000    0.00000000
     atom    2 type  1   force =    -0.00000000   -0.00000000   -0.00000000
     The Hubbard contrib.    to forces
     atom    1 type  1   force =     0.00000000    0.00000000    0.00000000
     atom    2 type  1   force =     0.00000000    0.00000000    0.00000000
     The SCF correction term to forces
     atom    1 type  1   force =     0.00000000    0.00000000   -0.00000000
     atom    2 type  1   force =    -0.00000000   -0.00000000    0.00000000

     Total force =     0.000000     Total SCF correction =     0.000000


     Computing stress (Cartesian axis) and pressure


     negative rho (up, down):  0.000E+00 9.803E-05
          total   stress  (Ry/bohr**3)                   (kbar)     P=      -72.68
  -0.00049405   0.00000000   0.00000000          -72.68        0.00        0.00
   0.00000000  -0.00049405   0.00000000            0.00      -72.68        0.00
   0.00000000   0.00000000  -0.00049405            0.00        0.00      -72.68

     kinetic stress (kbar)  95422.09      0.00      0.00
                                0.00  95422.09      0.00
                                0.00      0.00  95422.09

     local   stress (kbar)  12109.00      0.00      0.00
                                0.00  12109.00     -0.00
                                0.00     -0.00  12109.00

     nonloc. stress (kbar) -26160.92      0.00      0.00
                                0.00 -26160.92      0.00
                                0.00      0.00 -26160.92

     hartree stress (kbar)  40796.43      0.00     -0.00
                                0.00  40796.43      0.00
                               -0.00      0.00  40796.43

     exc-cor stress (kbar) -13739.51      0.00     -0.00
                                0.00 -13739.51      0.00
                               -0.00      0.00 -13739.51

     corecor stress (kbar)  -2619.83     -0.00     -0.00
                               -0.00  -2619.83     -0.00
                               -0.00     -0.00  -2619.83

     ewald   stress (kbar)-105879.93     -0.00     -0.00
                               -0.00-105879.93      0.00
                               -0.00      0.00-105879.93

     hubbard stress (kbar)      0.00      0.00      0.00
                                0.00      0.00      0.00
                                0.00      0.00      0.00

     DFT-D   stress (kbar)      0.00      0.00      0.00
                                0.00      0.00      0.00
                                0.00      0.00      0.00

     XDM     stress (kbar)      0.00      0.00      0.00
                                0.00      0.00      0.00
                                0.00      0.00      0.00

     dft-nl  stress (kbar)      0.00      0.00      0.00
                                0.00      0.00      0.00
                                0.00      0.00      0.00

     TS-vdW  stress (kbar)      0.00      0.00      0.00
                                0.00      0.00      0.00
                                0.00      0.00      0.00

     MDB     stress (kbar)      0.00      0.00      0.00
                                0.00      0.00      0.00
                                0.00      0.00      0.00

     3D-RISM stress (kbar)      0.00      0.00      0.00
                                0.00      0.00      0.00
                                0.00      0.00      0.00

     Message from routine punch:
     Nothing written, as per user request (disk_io='none')

     init_run     :      1.67s CPU      1.81s WALL (       1 calls)
     electrons    :     54.26s CPU     58.33s WALL (       1 calls)
     forces       :      0.26s CPU      0.27s WALL (       1 calls)
     stress       :      1.77s CPU      1.79s WALL (       1 calls)

     Called by init_run:
     wfcinit      :      0.79s CPU      0.87s WALL (       1 calls)
     wfcinit:atom :      0.01s CPU      0.02s WALL (     330 calls)
     wfcinit:wfcr :      0.69s CPU      0.76s WALL (     330 calls)
     potinit      :      0.35s CPU      0.38s WALL (       1 calls)
     hinit0       :      0.42s CPU      0.43s WALL (       1 calls)

     Called by electrons:
     c_bands      :     42.38s CPU     45.61s WALL (      21 calls)
     sum_band     :      8.49s CPU      9.20s WALL (      21 calls)
     v_of_rho     :      0.71s CPU      0.73s WALL (      22 calls)
     v_h          :      0.01s CPU      0.02s WALL (      22 calls)
     v_xc         :      0.76s CPU      0.79s WALL (      24 calls)
     newd         :      0.76s CPU      0.78s WALL (      22 calls)
     PAW_pot      :      1.98s CPU      2.08s WALL (      22 calls)
     mix_rho      :      0.04s CPU      0.05s WALL (      21 calls)

     Called by c_bands:
     init_us_2    :      0.86s CPU      0.93s WALL (   14850 calls)
     cegterg      :     40.49s CPU     43.57s WALL (    6930 calls)

     Called by sum_band:
     sum_band:wei :      0.10s CPU      0.11s WALL (      21 calls)
     sum_band:loo :      6.92s CPU      7.57s WALL (      21 calls)
     sum_band:buf :      0.16s CPU      0.17s WALL (    6930 calls)
     sum_band:ini :      0.38s CPU      0.42s WALL (    6930 calls)
     sum_band:cal :      0.36s CPU      0.39s WALL (    6930 calls)
     sum_band:bec :      0.04s CPU      0.05s WALL (    6930 calls)
     addusdens    :      1.42s CPU      1.45s WALL (      21 calls)
                                        0.00s GPU  (      21 calls)
     addusd:skk   :      0.00s CPU      0.01s WALL (      21 calls)
                                        0.00s GPU  (      21 calls)

     Called by *egterg:
     cdiaghg      :      5.76s CPU      6.11s WALL (   21752 calls)
     cegterg:over :      1.10s CPU      1.19s WALL (   14822 calls)
     cegterg:upda :      0.51s CPU      0.54s WALL (   14822 calls)
     cegterg:last :      1.00s CPU      1.04s WALL (   11959 calls)
     h_psi        :     30.94s CPU     33.45s WALL (   22082 calls)
     s_psi        :      0.68s CPU      0.74s WALL (   22082 calls)
     g_psi        :      0.13s CPU      0.14s WALL (   14822 calls)

     Called by h_psi:
     h_psi:calbec :      1.04s CPU      1.12s WALL (   22082 calls)
     vloc_psi     :     29.01s CPU     31.37s WALL (   22082 calls)
     add_vuspsi   :      0.70s CPU      0.76s WALL (   22082 calls)

     General routines
     calbec       :      1.46s CPU      1.58s WALL (   30662 calls)
     fft          :      0.49s CPU      0.52s WALL (     588 calls)
     ffts         :      0.22s CPU      0.22s WALL (      86 calls)
     fftw         :     27.19s CPU     29.38s WALL (  787476 calls)
     interpolate  :      0.23s CPU      0.23s WALL (      44 calls)

     Parallel routines

     PAW routines
     PAW_pot      :      1.98s CPU      2.08s WALL (      22 calls)
     PAW_symme    :      0.02s CPU      0.02s WALL (      43 calls)

     PWSCF        :     58.05s CPU     62.37s WALL


   This run was terminated on:  11:18:22  24May2025            

=------------------------------------------------------------------------------=
   JOB DONE.
=------------------------------------------------------------------------------=
