
     Program PWSCF v.7.3.1 starts on  3Jun2025 at 14:34:10 

     This program is part of the open-source Quantum ESPRESSO suite
     for quantum simulation of materials; please cite
         "P. Giannozzi et al., J. Phys.:Condens. Matter 21 395502 (2009);
         "P. Giannozzi et al., J. Phys.:Condens. Matter 29 465901 (2017);
         "P. Giannozzi et al., J. Chem. Phys. 152 154105 (2020);
          URL http://www.quantum-espresso.org", 
     in publications or presentations arising from this work. More details at
     http://www.quantum-espresso.org/quote

     Parallel version (MPI & OpenMP), running on     128 processor cores
     Number of MPI processes:               128
     Threads/MPI process:                     1

     MPI processes distributed on     1 nodes
     446156 MiB available memory on the printing compute node when the environment starts

     Waiting for input...
     Reading input from standard input

     Current dimensions of program PWSCF are:
     Max number of different atomic species (ntypx) = 10
     Max number of k-points (npk) =  40000
     Max angular momentum in pseudopotentials (lmaxx) =  4
     Found identity + (  0.1667  0.1667  0.1667) symmetry
     This is a supercell, fractional translations are disabled
     Message from routine setup:
     using ibrav=0 with symmetry is DISCOURAGED, use correct ibrav instead

     K-points division:     npool     =       8
     R & G space division:  proc/nbgrp/npool/nimage =      16
     Subspace diagonalization in iterative solution of the eigenvalue problem:
     one sub-group per band group will be used
     ELPA distributed-memory algorithm (size of sub-group:  4*  4 procs)


     Parallelization info
     --------------------
     sticks:   dense  smooth     PW     G-vecs:    dense   smooth      PW
     Min        1420     473    126               161001    30976    4292
     Max        1422     475    127               161002    30980    4295
     Sum       22725    7589   2025              2576031   495639   68699

     Using Slab Decomposition



     bravais-lattice index     =            0
     lattice parameter (alat)  =      16.2598  a.u.
     unit-cell volume          =    4298.7603 (a.u.)^3
     number of atoms/cell      =           54
     number of atomic types    =            1
     number of electrons       =       864.00
     number of Kohn-Sham states=          518
     kinetic-energy cutoff     =      90.0000  Ry
     charge density cutoff     =    1080.0000  Ry
     scf convergence threshold =      1.0E-08
     mixing beta               =       0.2000
     number of iterations used =            8  plain     mixing
     energy convergence thresh.=      1.0E-04
     force convergence thresh. =      1.0E-03
     Exchange-correlation= PBE
                           (   1   4   3   4   0   0   0)
     nstep                     =           50


     celldm(1)=  16.259770  celldm(2)=   0.000000  celldm(3)=   0.000000
     celldm(4)=   0.000000  celldm(5)=   0.000000  celldm(6)=   0.000000

     crystal axes: (cart. coord. in units of alat)
               a(1) = (   1.000000   0.000000   0.000000 )  
               a(2) = (   0.000000   1.000000   0.000000 )  
               a(3) = (   0.000000   0.000000   1.000000 )  

     reciprocal axes: (cart. coord. in units 2 pi/alat)
               b(1) = (  1.000000  0.000000  0.000000 )  
               b(2) = (  0.000000  1.000000  0.000000 )  
               b(3) = (  0.000000  0.000000  1.000000 )  


     PseudoPot. # 1 for Fe read from file:
     ./pseudo/Fe.pbe-spn-rrkjus_psl.0.2.1.UPF
     MD5 check sum: f9af58635850a145d9bd408d58feeb93
     Pseudo is Ultrasoft + core correction, Zval = 16.0
     Generated using "atomic" code by A. Dal Corso  v.5.0.2 svn rev. 9415
     Using radial grid of 1191 points,  6 beta functions with: 
                l(1) =   0
                l(2) =   0
                l(3) =   1
                l(4) =   1
                l(5) =   2
                l(6) =   2
     Q(r) pseudized with 0 coefficients 


     atomic species   valence    mass     pseudopotential
     Fe               16.00    55.84500     Fe( 1.00)

     Starting magnetic structure 
     atomic species   magnetization
     Fe              0.400

     48 Sym. Ops., with inversion, found


                                    s                        frac. trans.

      isym =  1     identity                                     

 cryst.   s( 1) = (     1          0          0      )
                  (     0          1          0      )
                  (     0          0          1      )

 cart.    s( 1) = (  1.0000000  0.0000000  0.0000000 )
                  (  0.0000000  1.0000000  0.0000000 )
                  (  0.0000000  0.0000000  1.0000000 )


      isym =  2     180 deg rotation - cart. axis [0,0,1]        

 cryst.   s( 2) = (    -1          0          0      )
                  (     0         -1          0      )
                  (     0          0          1      )

 cart.    s( 2) = ( -1.0000000  0.0000000  0.0000000 )
                  (  0.0000000 -1.0000000  0.0000000 )
                  (  0.0000000  0.0000000  1.0000000 )


      isym =  3     180 deg rotation - cart. axis [0,1,0]        

 cryst.   s( 3) = (    -1          0          0      )
                  (     0          1          0      )
                  (     0          0         -1      )

 cart.    s( 3) = ( -1.0000000  0.0000000  0.0000000 )
                  (  0.0000000  1.0000000  0.0000000 )
                  (  0.0000000  0.0000000 -1.0000000 )


      isym =  4     180 deg rotation - cart. axis [1,0,0]        

 cryst.   s( 4) = (     1          0          0      )
                  (     0         -1          0      )
                  (     0          0         -1      )

 cart.    s( 4) = (  1.0000000  0.0000000  0.0000000 )
                  (  0.0000000 -1.0000000  0.0000000 )
                  (  0.0000000  0.0000000 -1.0000000 )


      isym =  5     180 deg rotation - cart. axis [1,1,0]        

 cryst.   s( 5) = (     0          1          0      )
                  (     1          0          0      )
                  (     0          0         -1      )

 cart.    s( 5) = (  0.0000000  1.0000000  0.0000000 )
                  (  1.0000000  0.0000000  0.0000000 )
                  (  0.0000000  0.0000000 -1.0000000 )


      isym =  6     180 deg rotation - cart. axis [1,-1,0]       

 cryst.   s( 6) = (     0         -1          0      )
                  (    -1          0          0      )
                  (     0          0         -1      )

 cart.    s( 6) = (  0.0000000 -1.0000000  0.0000000 )
                  ( -1.0000000  0.0000000  0.0000000 )
                  (  0.0000000  0.0000000 -1.0000000 )


      isym =  7      90 deg rotation - cart. axis [0,0,-1]       

 cryst.   s( 7) = (     0         -1          0      )
                  (     1          0          0      )
                  (     0          0          1      )

 cart.    s( 7) = (  0.0000000  1.0000000  0.0000000 )
                  ( -1.0000000  0.0000000  0.0000000 )
                  (  0.0000000  0.0000000  1.0000000 )


      isym =  8      90 deg rotation - cart. axis [0,0,1]        

 cryst.   s( 8) = (     0          1          0      )
                  (    -1          0          0      )
                  (     0          0          1      )

 cart.    s( 8) = (  0.0000000 -1.0000000  0.0000000 )
                  (  1.0000000  0.0000000  0.0000000 )
                  (  0.0000000  0.0000000  1.0000000 )


      isym =  9     180 deg rotation - cart. axis [1,0,1]        

 cryst.   s( 9) = (     0          0          1      )
                  (     0         -1          0      )
                  (     1          0          0      )

 cart.    s( 9) = (  0.0000000  0.0000000  1.0000000 )
                  (  0.0000000 -1.0000000  0.0000000 )
                  (  1.0000000  0.0000000  0.0000000 )


      isym = 10     180 deg rotation - cart. axis [-1,0,1]       

 cryst.   s(10) = (     0          0         -1      )
                  (     0         -1          0      )
                  (    -1          0          0      )

 cart.    s(10) = (  0.0000000  0.0000000 -1.0000000 )
                  (  0.0000000 -1.0000000  0.0000000 )
                  ( -1.0000000  0.0000000  0.0000000 )


      isym = 11      90 deg rotation - cart. axis [0,1,0]        

 cryst.   s(11) = (     0          0         -1      )
                  (     0          1          0      )
                  (     1          0          0      )

 cart.    s(11) = (  0.0000000  0.0000000  1.0000000 )
                  (  0.0000000  1.0000000  0.0000000 )
                  ( -1.0000000  0.0000000  0.0000000 )


      isym = 12      90 deg rotation - cart. axis [0,-1,0]       

 cryst.   s(12) = (     0          0          1      )
                  (     0          1          0      )
                  (    -1          0          0      )

 cart.    s(12) = (  0.0000000  0.0000000 -1.0000000 )
                  (  0.0000000  1.0000000  0.0000000 )
                  (  1.0000000  0.0000000  0.0000000 )


      isym = 13     180 deg rotation - cart. axis [0,1,1]        

 cryst.   s(13) = (    -1          0          0      )
                  (     0          0          1      )
                  (     0          1          0      )

 cart.    s(13) = ( -1.0000000  0.0000000  0.0000000 )
                  (  0.0000000  0.0000000  1.0000000 )
                  (  0.0000000  1.0000000  0.0000000 )


      isym = 14     180 deg rotation - cart. axis [0,1,-1]       

 cryst.   s(14) = (    -1          0          0      )
                  (     0          0         -1      )
                  (     0         -1          0      )

 cart.    s(14) = ( -1.0000000  0.0000000  0.0000000 )
                  (  0.0000000  0.0000000 -1.0000000 )
                  (  0.0000000 -1.0000000  0.0000000 )


      isym = 15      90 deg rotation - cart. axis [-1,0,0]       

 cryst.   s(15) = (     1          0          0      )
                  (     0          0         -1      )
                  (     0          1          0      )

 cart.    s(15) = (  1.0000000  0.0000000  0.0000000 )
                  (  0.0000000  0.0000000  1.0000000 )
                  (  0.0000000 -1.0000000  0.0000000 )


      isym = 16      90 deg rotation - cart. axis [1,0,0]        

 cryst.   s(16) = (     1          0          0      )
                  (     0          0          1      )
                  (     0         -1          0      )

 cart.    s(16) = (  1.0000000  0.0000000  0.0000000 )
                  (  0.0000000  0.0000000 -1.0000000 )
                  (  0.0000000  1.0000000  0.0000000 )


      isym = 17     120 deg rotation - cart. axis [-1,-1,-1]     

 cryst.   s(17) = (     0          0          1      )
                  (     1          0          0      )
                  (     0          1          0      )

 cart.    s(17) = (  0.0000000  1.0000000  0.0000000 )
                  (  0.0000000  0.0000000  1.0000000 )
                  (  1.0000000  0.0000000  0.0000000 )


      isym = 18     120 deg rotation - cart. axis [-1,1,1]       

 cryst.   s(18) = (     0          0         -1      )
                  (    -1          0          0      )
                  (     0          1          0      )

 cart.    s(18) = (  0.0000000 -1.0000000  0.0000000 )
                  (  0.0000000  0.0000000  1.0000000 )
                  ( -1.0000000  0.0000000  0.0000000 )


      isym = 19     120 deg rotation - cart. axis [1,1,-1]       

 cryst.   s(19) = (     0          0         -1      )
                  (     1          0          0      )
                  (     0         -1          0      )

 cart.    s(19) = (  0.0000000  1.0000000  0.0000000 )
                  (  0.0000000  0.0000000 -1.0000000 )
                  ( -1.0000000  0.0000000  0.0000000 )


      isym = 20     120 deg rotation - cart. axis [1,-1,1]       

 cryst.   s(20) = (     0          0          1      )
                  (    -1          0          0      )
                  (     0         -1          0      )

 cart.    s(20) = (  0.0000000 -1.0000000  0.0000000 )
                  (  0.0000000  0.0000000 -1.0000000 )
                  (  1.0000000  0.0000000  0.0000000 )


      isym = 21     120 deg rotation - cart. axis [1,1,1]        

 cryst.   s(21) = (     0          1          0      )
                  (     0          0          1      )
                  (     1          0          0      )

 cart.    s(21) = (  0.0000000  0.0000000  1.0000000 )
                  (  1.0000000  0.0000000  0.0000000 )
                  (  0.0000000  1.0000000  0.0000000 )


      isym = 22     120 deg rotation - cart. axis [-1,1,-1]      

 cryst.   s(22) = (     0         -1          0      )
                  (     0          0         -1      )
                  (     1          0          0      )

 cart.    s(22) = (  0.0000000  0.0000000  1.0000000 )
                  ( -1.0000000  0.0000000  0.0000000 )
                  (  0.0000000 -1.0000000  0.0000000 )


      isym = 23     120 deg rotation - cart. axis [1,-1,-1]      

 cryst.   s(23) = (     0         -1          0      )
                  (     0          0          1      )
                  (    -1          0          0      )

 cart.    s(23) = (  0.0000000  0.0000000 -1.0000000 )
                  ( -1.0000000  0.0000000  0.0000000 )
                  (  0.0000000  1.0000000  0.0000000 )


      isym = 24     120 deg rotation - cart. axis [-1,-1,1]      

 cryst.   s(24) = (     0          1          0      )
                  (     0          0         -1      )
                  (    -1          0          0      )

 cart.    s(24) = (  0.0000000  0.0000000 -1.0000000 )
                  (  1.0000000  0.0000000  0.0000000 )
                  (  0.0000000 -1.0000000  0.0000000 )


      isym = 25     inversion                                    

 cryst.   s(25) = (    -1          0          0      )
                  (     0         -1          0      )
                  (     0          0         -1      )

 cart.    s(25) = ( -1.0000000  0.0000000  0.0000000 )
                  (  0.0000000 -1.0000000  0.0000000 )
                  (  0.0000000  0.0000000 -1.0000000 )


      isym = 26     inv. 180 deg rotation - cart. axis [0,0,1]   

 cryst.   s(26) = (     1          0          0      )
                  (     0          1          0      )
                  (     0          0         -1      )

 cart.    s(26) = (  1.0000000  0.0000000  0.0000000 )
                  (  0.0000000  1.0000000  0.0000000 )
                  (  0.0000000  0.0000000 -1.0000000 )


      isym = 27     inv. 180 deg rotation - cart. axis [0,1,0]   

 cryst.   s(27) = (     1          0          0      )
                  (     0         -1          0      )
                  (     0          0          1      )

 cart.    s(27) = (  1.0000000  0.0000000  0.0000000 )
                  (  0.0000000 -1.0000000  0.0000000 )
                  (  0.0000000  0.0000000  1.0000000 )


      isym = 28     inv. 180 deg rotation - cart. axis [1,0,0]   

 cryst.   s(28) = (    -1          0          0      )
                  (     0          1          0      )
                  (     0          0          1      )

 cart.    s(28) = ( -1.0000000  0.0000000  0.0000000 )
                  (  0.0000000  1.0000000  0.0000000 )
                  (  0.0000000  0.0000000  1.0000000 )


      isym = 29     inv. 180 deg rotation - cart. axis [1,1,0]   

 cryst.   s(29) = (     0         -1          0      )
                  (    -1          0          0      )
                  (     0          0          1      )

 cart.    s(29) = (  0.0000000 -1.0000000  0.0000000 )
                  ( -1.0000000  0.0000000  0.0000000 )
                  (  0.0000000  0.0000000  1.0000000 )


      isym = 30     inv. 180 deg rotation - cart. axis [1,-1,0]  

 cryst.   s(30) = (     0          1          0      )
                  (     1          0          0      )
                  (     0          0          1      )

 cart.    s(30) = (  0.0000000  1.0000000  0.0000000 )
                  (  1.0000000  0.0000000  0.0000000 )
                  (  0.0000000  0.0000000  1.0000000 )


      isym = 31     inv.  90 deg rotation - cart. axis [0,0,-1]  

 cryst.   s(31) = (     0          1          0      )
                  (    -1          0          0      )
                  (     0          0         -1      )

 cart.    s(31) = (  0.0000000 -1.0000000  0.0000000 )
                  (  1.0000000  0.0000000  0.0000000 )
                  (  0.0000000  0.0000000 -1.0000000 )


      isym = 32     inv.  90 deg rotation - cart. axis [0,0,1]   

 cryst.   s(32) = (     0         -1          0      )
                  (     1          0          0      )
                  (     0          0         -1      )

 cart.    s(32) = (  0.0000000  1.0000000  0.0000000 )
                  ( -1.0000000  0.0000000  0.0000000 )
                  (  0.0000000  0.0000000 -1.0000000 )


      isym = 33     inv. 180 deg rotation - cart. axis [1,0,1]   

 cryst.   s(33) = (     0          0         -1      )
                  (     0          1          0      )
                  (    -1          0          0      )

 cart.    s(33) = (  0.0000000  0.0000000 -1.0000000 )
                  (  0.0000000  1.0000000  0.0000000 )
                  ( -1.0000000  0.0000000  0.0000000 )


      isym = 34     inv. 180 deg rotation - cart. axis [-1,0,1]  

 cryst.   s(34) = (     0          0          1      )
                  (     0          1          0      )
                  (     1          0          0      )

 cart.    s(34) = (  0.0000000  0.0000000  1.0000000 )
                  (  0.0000000  1.0000000  0.0000000 )
                  (  1.0000000  0.0000000  0.0000000 )


      isym = 35     inv.  90 deg rotation - cart. axis [0,1,0]   

 cryst.   s(35) = (     0          0          1      )
                  (     0         -1          0      )
                  (    -1          0          0      )

 cart.    s(35) = (  0.0000000  0.0000000 -1.0000000 )
                  (  0.0000000 -1.0000000  0.0000000 )
                  (  1.0000000  0.0000000  0.0000000 )


      isym = 36     inv.  90 deg rotation - cart. axis [0,-1,0]  

 cryst.   s(36) = (     0          0         -1      )
                  (     0         -1          0      )
                  (     1          0          0      )

 cart.    s(36) = (  0.0000000  0.0000000  1.0000000 )
                  (  0.0000000 -1.0000000  0.0000000 )
                  ( -1.0000000  0.0000000  0.0000000 )


      isym = 37     inv. 180 deg rotation - cart. axis [0,1,1]   

 cryst.   s(37) = (     1          0          0      )
                  (     0          0         -1      )
                  (     0         -1          0      )

 cart.    s(37) = (  1.0000000  0.0000000  0.0000000 )
                  (  0.0000000  0.0000000 -1.0000000 )
                  (  0.0000000 -1.0000000  0.0000000 )


      isym = 38     inv. 180 deg rotation - cart. axis [0,1,-1]  

 cryst.   s(38) = (     1          0          0      )
                  (     0          0          1      )
                  (     0          1          0      )

 cart.    s(38) = (  1.0000000  0.0000000  0.0000000 )
                  (  0.0000000  0.0000000  1.0000000 )
                  (  0.0000000  1.0000000  0.0000000 )


      isym = 39     inv.  90 deg rotation - cart. axis [-1,0,0]  

 cryst.   s(39) = (    -1          0          0      )
                  (     0          0          1      )
                  (     0         -1          0      )

 cart.    s(39) = ( -1.0000000  0.0000000  0.0000000 )
                  (  0.0000000  0.0000000 -1.0000000 )
                  (  0.0000000  1.0000000  0.0000000 )


      isym = 40     inv.  90 deg rotation - cart. axis [1,0,0]   

 cryst.   s(40) = (    -1          0          0      )
                  (     0          0         -1      )
                  (     0          1          0      )

 cart.    s(40) = ( -1.0000000  0.0000000  0.0000000 )
                  (  0.0000000  0.0000000  1.0000000 )
                  (  0.0000000 -1.0000000  0.0000000 )


      isym = 41     inv. 120 deg rotation - cart. axis [-1,-1,-1]

 cryst.   s(41) = (     0          0         -1      )
                  (    -1          0          0      )
                  (     0         -1          0      )

 cart.    s(41) = (  0.0000000 -1.0000000  0.0000000 )
                  (  0.0000000  0.0000000 -1.0000000 )
                  ( -1.0000000  0.0000000  0.0000000 )


      isym = 42     inv. 120 deg rotation - cart. axis [-1,1,1]  

 cryst.   s(42) = (     0          0          1      )
                  (     1          0          0      )
                  (     0         -1          0      )

 cart.    s(42) = (  0.0000000  1.0000000  0.0000000 )
                  (  0.0000000  0.0000000 -1.0000000 )
                  (  1.0000000  0.0000000  0.0000000 )


      isym = 43     inv. 120 deg rotation - cart. axis [1,1,-1]  

 cryst.   s(43) = (     0          0          1      )
                  (    -1          0          0      )
                  (     0          1          0      )

 cart.    s(43) = (  0.0000000 -1.0000000  0.0000000 )
                  (  0.0000000  0.0000000  1.0000000 )
                  (  1.0000000  0.0000000  0.0000000 )


      isym = 44     inv. 120 deg rotation - cart. axis [1,-1,1]  

 cryst.   s(44) = (     0          0         -1      )
                  (     1          0          0      )
                  (     0          1          0      )

 cart.    s(44) = (  0.0000000  1.0000000  0.0000000 )
                  (  0.0000000  0.0000000  1.0000000 )
                  ( -1.0000000  0.0000000  0.0000000 )


      isym = 45     inv. 120 deg rotation - cart. axis [1,1,1]   

 cryst.   s(45) = (     0         -1          0      )
                  (     0          0         -1      )
                  (    -1          0          0      )

 cart.    s(45) = (  0.0000000  0.0000000 -1.0000000 )
                  ( -1.0000000  0.0000000  0.0000000 )
                  (  0.0000000 -1.0000000  0.0000000 )


      isym = 46     inv. 120 deg rotation - cart. axis [-1,1,-1] 

 cryst.   s(46) = (     0          1          0      )
                  (     0          0          1      )
                  (    -1          0          0      )

 cart.    s(46) = (  0.0000000  0.0000000 -1.0000000 )
                  (  1.0000000  0.0000000  0.0000000 )
                  (  0.0000000  1.0000000  0.0000000 )


      isym = 47     inv. 120 deg rotation - cart. axis [1,-1,-1] 

 cryst.   s(47) = (     0          1          0      )
                  (     0          0         -1      )
                  (     1          0          0      )

 cart.    s(47) = (  0.0000000  0.0000000  1.0000000 )
                  (  1.0000000  0.0000000  0.0000000 )
                  (  0.0000000 -1.0000000  0.0000000 )


      isym = 48     inv. 120 deg rotation - cart. axis [-1,-1,1] 

 cryst.   s(48) = (     0         -1          0      )
                  (     0          0          1      )
                  (     1          0          0      )

 cart.    s(48) = (  0.0000000  0.0000000  1.0000000 )
                  ( -1.0000000  0.0000000  0.0000000 )
                  (  0.0000000  1.0000000  0.0000000 )


   Cartesian axes

     site n.     atom                  positions (alat units)
         1        Fe     tau(   1) = (   0.0000000   0.0000000   0.0000000  )
         2        Fe     tau(   2) = (   0.1666667   0.1666667   0.1666667  )
         3        Fe     tau(   3) = (   0.0000000   0.0000000   0.3333333  )
         4        Fe     tau(   4) = (   0.1666667   0.1666667   0.5000000  )
         5        Fe     tau(   5) = (   0.0000000   0.0000000   0.6666667  )
         6        Fe     tau(   6) = (   0.1666667   0.1666667   0.8333333  )
         7        Fe     tau(   7) = (   0.0000000   0.3333333   0.0000000  )
         8        Fe     tau(   8) = (   0.1666667   0.5000000   0.1666667  )
         9        Fe     tau(   9) = (   0.0000000   0.3333333   0.3333333  )
        10        Fe     tau(  10) = (   0.1666667   0.5000000   0.5000000  )
        11        Fe     tau(  11) = (   0.0000000   0.3333333   0.6666667  )
        12        Fe     tau(  12) = (   0.1666667   0.5000000   0.8333333  )
        13        Fe     tau(  13) = (   0.0000000   0.6666667   0.0000000  )
        14        Fe     tau(  14) = (   0.1666667   0.8333333   0.1666667  )
        15        Fe     tau(  15) = (   0.0000000   0.6666667   0.3333333  )
        16        Fe     tau(  16) = (   0.1666667   0.8333333   0.5000000  )
        17        Fe     tau(  17) = (   0.0000000   0.6666667   0.6666667  )
        18        Fe     tau(  18) = (   0.1666667   0.8333333   0.8333333  )
        19        Fe     tau(  19) = (   0.3333333   0.0000000   0.0000000  )
        20        Fe     tau(  20) = (   0.5000000   0.1666667   0.1666667  )
        21        Fe     tau(  21) = (   0.3333333   0.0000000   0.3333333  )
        22        Fe     tau(  22) = (   0.5000000   0.1666667   0.5000000  )
        23        Fe     tau(  23) = (   0.3333333   0.0000000   0.6666667  )
        24        Fe     tau(  24) = (   0.5000000   0.1666667   0.8333333  )
        25        Fe     tau(  25) = (   0.3333333   0.3333333   0.0000000  )
        26        Fe     tau(  26) = (   0.5000000   0.5000000   0.1666667  )
        27        Fe     tau(  27) = (   0.3333333   0.3333333   0.3333333  )
        28        Fe     tau(  28) = (   0.5000000   0.5000000   0.5000000  )
        29        Fe     tau(  29) = (   0.3333333   0.3333333   0.6666667  )
        30        Fe     tau(  30) = (   0.5000000   0.5000000   0.8333333  )
        31        Fe     tau(  31) = (   0.3333333   0.6666667   0.0000000  )
        32        Fe     tau(  32) = (   0.5000000   0.8333333   0.1666667  )
        33        Fe     tau(  33) = (   0.3333333   0.6666667   0.3333333  )
        34        Fe     tau(  34) = (   0.5000000   0.8333333   0.5000000  )
        35        Fe     tau(  35) = (   0.3333333   0.6666667   0.6666667  )
        36        Fe     tau(  36) = (   0.5000000   0.8333333   0.8333333  )
        37        Fe     tau(  37) = (   0.6666667   0.0000000   0.0000000  )
        38        Fe     tau(  38) = (   0.8333333   0.1666667   0.1666667  )
        39        Fe     tau(  39) = (   0.6666667   0.0000000   0.3333333  )
        40        Fe     tau(  40) = (   0.8333333   0.1666667   0.5000000  )
        41        Fe     tau(  41) = (   0.6666667   0.0000000   0.6666667  )
        42        Fe     tau(  42) = (   0.8333333   0.1666667   0.8333333  )
        43        Fe     tau(  43) = (   0.6666667   0.3333333   0.0000000  )
        44        Fe     tau(  44) = (   0.8333333   0.5000000   0.1666667  )
        45        Fe     tau(  45) = (   0.6666667   0.3333333   0.3333333  )
        46        Fe     tau(  46) = (   0.8333333   0.5000000   0.5000000  )
        47        Fe     tau(  47) = (   0.6666667   0.3333333   0.6666667  )
        48        Fe     tau(  48) = (   0.8333333   0.5000000   0.8333333  )
        49        Fe     tau(  49) = (   0.6666667   0.6666667   0.0000000  )
        50        Fe     tau(  50) = (   0.8333333   0.8333333   0.1666667  )
        51        Fe     tau(  51) = (   0.6666667   0.6666667   0.3333333  )
        52        Fe     tau(  52) = (   0.8333333   0.8333333   0.5000000  )
        53        Fe     tau(  53) = (   0.6666667   0.6666667   0.6666667  )
        54        Fe     tau(  54) = (   0.8333333   0.8333333   0.8333333  )

   Crystallographic axes

     site n.     atom                  positions (cryst. coord.)
         1        Fe     tau(   1) = (  0.0000000  0.0000000  0.0000000  )
         2        Fe     tau(   2) = (  0.1666667  0.1666667  0.1666667  )
         3        Fe     tau(   3) = (  0.0000000  0.0000000  0.3333333  )
         4        Fe     tau(   4) = (  0.1666667  0.1666667  0.5000000  )
         5        Fe     tau(   5) = (  0.0000000  0.0000000  0.6666667  )
         6        Fe     tau(   6) = (  0.1666667  0.1666667  0.8333333  )
         7        Fe     tau(   7) = (  0.0000000  0.3333333  0.0000000  )
         8        Fe     tau(   8) = (  0.1666667  0.5000000  0.1666667  )
         9        Fe     tau(   9) = (  0.0000000  0.3333333  0.3333333  )
        10        Fe     tau(  10) = (  0.1666667  0.5000000  0.5000000  )
        11        Fe     tau(  11) = (  0.0000000  0.3333333  0.6666667  )
        12        Fe     tau(  12) = (  0.1666667  0.5000000  0.8333333  )
        13        Fe     tau(  13) = (  0.0000000  0.6666667  0.0000000  )
        14        Fe     tau(  14) = (  0.1666667  0.8333333  0.1666667  )
        15        Fe     tau(  15) = (  0.0000000  0.6666667  0.3333333  )
        16        Fe     tau(  16) = (  0.1666667  0.8333333  0.5000000  )
        17        Fe     tau(  17) = (  0.0000000  0.6666667  0.6666667  )
        18        Fe     tau(  18) = (  0.1666667  0.8333333  0.8333333  )
        19        Fe     tau(  19) = (  0.3333333  0.0000000  0.0000000  )
        20        Fe     tau(  20) = (  0.5000000  0.1666667  0.1666667  )
        21        Fe     tau(  21) = (  0.3333333  0.0000000  0.3333333  )
        22        Fe     tau(  22) = (  0.5000000  0.1666667  0.5000000  )
        23        Fe     tau(  23) = (  0.3333333  0.0000000  0.6666667  )
        24        Fe     tau(  24) = (  0.5000000  0.1666667  0.8333333  )
        25        Fe     tau(  25) = (  0.3333333  0.3333333  0.0000000  )
        26        Fe     tau(  26) = (  0.5000000  0.5000000  0.1666667  )
        27        Fe     tau(  27) = (  0.3333333  0.3333333  0.3333333  )
        28        Fe     tau(  28) = (  0.5000000  0.5000000  0.5000000  )
        29        Fe     tau(  29) = (  0.3333333  0.3333333  0.6666667  )
        30        Fe     tau(  30) = (  0.5000000  0.5000000  0.8333333  )
        31        Fe     tau(  31) = (  0.3333333  0.6666667  0.0000000  )
        32        Fe     tau(  32) = (  0.5000000  0.8333333  0.1666667  )
        33        Fe     tau(  33) = (  0.3333333  0.6666667  0.3333333  )
        34        Fe     tau(  34) = (  0.5000000  0.8333333  0.5000000  )
        35        Fe     tau(  35) = (  0.3333333  0.6666667  0.6666667  )
        36        Fe     tau(  36) = (  0.5000000  0.8333333  0.8333333  )
        37        Fe     tau(  37) = (  0.6666667  0.0000000  0.0000000  )
        38        Fe     tau(  38) = (  0.8333333  0.1666667  0.1666667  )
        39        Fe     tau(  39) = (  0.6666667  0.0000000  0.3333333  )
        40        Fe     tau(  40) = (  0.8333333  0.1666667  0.5000000  )
        41        Fe     tau(  41) = (  0.6666667  0.0000000  0.6666667  )
        42        Fe     tau(  42) = (  0.8333333  0.1666667  0.8333333  )
        43        Fe     tau(  43) = (  0.6666667  0.3333333  0.0000000  )
        44        Fe     tau(  44) = (  0.8333333  0.5000000  0.1666667  )
        45        Fe     tau(  45) = (  0.6666667  0.3333333  0.3333333  )
        46        Fe     tau(  46) = (  0.8333333  0.5000000  0.5000000  )
        47        Fe     tau(  47) = (  0.6666667  0.3333333  0.6666667  )
        48        Fe     tau(  48) = (  0.8333333  0.5000000  0.8333333  )
        49        Fe     tau(  49) = (  0.6666667  0.6666667  0.0000000  )
        50        Fe     tau(  50) = (  0.8333333  0.8333333  0.1666667  )
        51        Fe     tau(  51) = (  0.6666667  0.6666667  0.3333333  )
        52        Fe     tau(  52) = (  0.8333333  0.8333333  0.5000000  )
        53        Fe     tau(  53) = (  0.6666667  0.6666667  0.6666667  )
        54        Fe     tau(  54) = (  0.8333333  0.8333333  0.8333333  )

     number of k points=    56  Marzari-Vanderbilt smearing, width (Ry)=  0.0100
                       cart. coord. in units 2pi/alat
        k(    1) = (   0.0000000   0.0000000   0.0000000), wk =   0.0010000
        k(    2) = (   0.0000000   0.0000000   0.1000000), wk =   0.0060000
        k(    3) = (   0.0000000   0.0000000   0.2000000), wk =   0.0060000
        k(    4) = (   0.0000000   0.0000000   0.3000000), wk =   0.0060000
        k(    5) = (   0.0000000   0.0000000   0.4000000), wk =   0.0060000
        k(    6) = (   0.0000000   0.0000000  -0.5000000), wk =   0.0030000
        k(    7) = (   0.0000000   0.1000000   0.1000000), wk =   0.0120000
        k(    8) = (   0.0000000   0.1000000   0.2000000), wk =   0.0240000
        k(    9) = (   0.0000000   0.1000000   0.3000000), wk =   0.0240000
        k(   10) = (   0.0000000   0.1000000   0.4000000), wk =   0.0240000
        k(   11) = (   0.0000000   0.1000000  -0.5000000), wk =   0.0120000
        k(   12) = (   0.0000000   0.2000000   0.2000000), wk =   0.0120000
        k(   13) = (   0.0000000   0.2000000   0.3000000), wk =   0.0240000
        k(   14) = (   0.0000000   0.2000000   0.4000000), wk =   0.0240000
        k(   15) = (   0.0000000   0.2000000  -0.5000000), wk =   0.0120000
        k(   16) = (   0.0000000   0.3000000   0.3000000), wk =   0.0120000
        k(   17) = (   0.0000000   0.3000000   0.4000000), wk =   0.0240000
        k(   18) = (   0.0000000   0.3000000  -0.5000000), wk =   0.0120000
        k(   19) = (   0.0000000   0.4000000   0.4000000), wk =   0.0120000
        k(   20) = (   0.0000000   0.4000000  -0.5000000), wk =   0.0120000
        k(   21) = (   0.0000000  -0.5000000  -0.5000000), wk =   0.0030000
        k(   22) = (   0.1000000   0.1000000   0.1000000), wk =   0.0080000
        k(   23) = (   0.1000000   0.1000000   0.2000000), wk =   0.0240000
        k(   24) = (   0.1000000   0.1000000   0.3000000), wk =   0.0240000
        k(   25) = (   0.1000000   0.1000000   0.4000000), wk =   0.0240000
        k(   26) = (   0.1000000   0.1000000  -0.5000000), wk =   0.0120000
        k(   27) = (   0.1000000   0.2000000   0.2000000), wk =   0.0240000
        k(   28) = (   0.1000000   0.2000000   0.3000000), wk =   0.0480000
        k(   29) = (   0.1000000   0.2000000   0.4000000), wk =   0.0480000
        k(   30) = (   0.1000000   0.2000000  -0.5000000), wk =   0.0240000
        k(   31) = (   0.1000000   0.3000000   0.3000000), wk =   0.0240000
        k(   32) = (   0.1000000   0.3000000   0.4000000), wk =   0.0480000
        k(   33) = (   0.1000000   0.3000000  -0.5000000), wk =   0.0240000
        k(   34) = (   0.1000000   0.4000000   0.4000000), wk =   0.0240000
        k(   35) = (   0.1000000   0.4000000  -0.5000000), wk =   0.0240000
        k(   36) = (   0.1000000  -0.5000000  -0.5000000), wk =   0.0060000
        k(   37) = (   0.2000000   0.2000000   0.2000000), wk =   0.0080000
        k(   38) = (   0.2000000   0.2000000   0.3000000), wk =   0.0240000
        k(   39) = (   0.2000000   0.2000000   0.4000000), wk =   0.0240000
        k(   40) = (   0.2000000   0.2000000  -0.5000000), wk =   0.0120000
        k(   41) = (   0.2000000   0.3000000   0.3000000), wk =   0.0240000
        k(   42) = (   0.2000000   0.3000000   0.4000000), wk =   0.0480000
        k(   43) = (   0.2000000   0.3000000  -0.5000000), wk =   0.0240000
        k(   44) = (   0.2000000   0.4000000   0.4000000), wk =   0.0240000
        k(   45) = (   0.2000000   0.4000000  -0.5000000), wk =   0.0240000
        k(   46) = (   0.2000000  -0.5000000  -0.5000000), wk =   0.0060000
        k(   47) = (   0.3000000   0.3000000   0.3000000), wk =   0.0080000
        k(   48) = (   0.3000000   0.3000000   0.4000000), wk =   0.0240000
        k(   49) = (   0.3000000   0.3000000  -0.5000000), wk =   0.0120000
        k(   50) = (   0.3000000   0.4000000   0.4000000), wk =   0.0240000
        k(   51) = (   0.3000000   0.4000000  -0.5000000), wk =   0.0240000
        k(   52) = (   0.3000000  -0.5000000  -0.5000000), wk =   0.0060000
        k(   53) = (   0.4000000   0.4000000   0.4000000), wk =   0.0080000
        k(   54) = (   0.4000000   0.4000000  -0.5000000), wk =   0.0120000
        k(   55) = (   0.4000000  -0.5000000  -0.5000000), wk =   0.0060000
        k(   56) = (  -0.5000000  -0.5000000  -0.5000000), wk =   0.0010000

                       cryst. coord.
        k(    1) = (   0.0000000   0.0000000   0.0000000), wk =   0.0010000
        k(    2) = (   0.0000000   0.0000000   0.1000000), wk =   0.0060000
        k(    3) = (   0.0000000   0.0000000   0.2000000), wk =   0.0060000
        k(    4) = (   0.0000000   0.0000000   0.3000000), wk =   0.0060000
        k(    5) = (   0.0000000   0.0000000   0.4000000), wk =   0.0060000
        k(    6) = (   0.0000000   0.0000000  -0.5000000), wk =   0.0030000
        k(    7) = (   0.0000000   0.1000000   0.1000000), wk =   0.0120000
        k(    8) = (   0.0000000   0.1000000   0.2000000), wk =   0.0240000
        k(    9) = (   0.0000000   0.1000000   0.3000000), wk =   0.0240000
        k(   10) = (   0.0000000   0.1000000   0.4000000), wk =   0.0240000
        k(   11) = (   0.0000000   0.1000000  -0.5000000), wk =   0.0120000
        k(   12) = (   0.0000000   0.2000000   0.2000000), wk =   0.0120000
        k(   13) = (   0.0000000   0.2000000   0.3000000), wk =   0.0240000
        k(   14) = (   0.0000000   0.2000000   0.4000000), wk =   0.0240000
        k(   15) = (   0.0000000   0.2000000  -0.5000000), wk =   0.0120000
        k(   16) = (   0.0000000   0.3000000   0.3000000), wk =   0.0120000
        k(   17) = (   0.0000000   0.3000000   0.4000000), wk =   0.0240000
        k(   18) = (   0.0000000   0.3000000  -0.5000000), wk =   0.0120000
        k(   19) = (   0.0000000   0.4000000   0.4000000), wk =   0.0120000
        k(   20) = (   0.0000000   0.4000000  -0.5000000), wk =   0.0120000
        k(   21) = (   0.0000000  -0.5000000  -0.5000000), wk =   0.0030000
        k(   22) = (   0.1000000   0.1000000   0.1000000), wk =   0.0080000
        k(   23) = (   0.1000000   0.1000000   0.2000000), wk =   0.0240000
        k(   24) = (   0.1000000   0.1000000   0.3000000), wk =   0.0240000
        k(   25) = (   0.1000000   0.1000000   0.4000000), wk =   0.0240000
        k(   26) = (   0.1000000   0.1000000  -0.5000000), wk =   0.0120000
        k(   27) = (   0.1000000   0.2000000   0.2000000), wk =   0.0240000
        k(   28) = (   0.1000000   0.2000000   0.3000000), wk =   0.0480000
        k(   29) = (   0.1000000   0.2000000   0.4000000), wk =   0.0480000
        k(   30) = (   0.1000000   0.2000000  -0.5000000), wk =   0.0240000
        k(   31) = (   0.1000000   0.3000000   0.3000000), wk =   0.0240000
        k(   32) = (   0.1000000   0.3000000   0.4000000), wk =   0.0480000
        k(   33) = (   0.1000000   0.3000000  -0.5000000), wk =   0.0240000
        k(   34) = (   0.1000000   0.4000000   0.4000000), wk =   0.0240000
        k(   35) = (   0.1000000   0.4000000  -0.5000000), wk =   0.0240000
        k(   36) = (   0.1000000  -0.5000000  -0.5000000), wk =   0.0060000
        k(   37) = (   0.2000000   0.2000000   0.2000000), wk =   0.0080000
        k(   38) = (   0.2000000   0.2000000   0.3000000), wk =   0.0240000
        k(   39) = (   0.2000000   0.2000000   0.4000000), wk =   0.0240000
        k(   40) = (   0.2000000   0.2000000  -0.5000000), wk =   0.0120000
        k(   41) = (   0.2000000   0.3000000   0.3000000), wk =   0.0240000
        k(   42) = (   0.2000000   0.3000000   0.4000000), wk =   0.0480000
        k(   43) = (   0.2000000   0.3000000  -0.5000000), wk =   0.0240000
        k(   44) = (   0.2000000   0.4000000   0.4000000), wk =   0.0240000
        k(   45) = (   0.2000000   0.4000000  -0.5000000), wk =   0.0240000
        k(   46) = (   0.2000000  -0.5000000  -0.5000000), wk =   0.0060000
        k(   47) = (   0.3000000   0.3000000   0.3000000), wk =   0.0080000
        k(   48) = (   0.3000000   0.3000000   0.4000000), wk =   0.0240000
        k(   49) = (   0.3000000   0.3000000  -0.5000000), wk =   0.0120000
        k(   50) = (   0.3000000   0.4000000   0.4000000), wk =   0.0240000
        k(   51) = (   0.3000000   0.4000000  -0.5000000), wk =   0.0240000
        k(   52) = (   0.3000000  -0.5000000  -0.5000000), wk =   0.0060000
        k(   53) = (   0.4000000   0.4000000   0.4000000), wk =   0.0080000
        k(   54) = (   0.4000000   0.4000000  -0.5000000), wk =   0.0120000
        k(   55) = (   0.4000000  -0.5000000  -0.5000000), wk =   0.0060000
        k(   56) = (  -0.5000000  -0.5000000  -0.5000000), wk =   0.0010000

     Dense  grid:  2576031 G-vectors     FFT dimensions: ( 180, 180, 180)

     Smooth grid:   495639 G-vectors     FFT dimensions: ( 100, 100, 100)

     Dynamical RAM for                 wfc:      30.61 MB

     Dynamical RAM for     wfc (w. buffer):     459.19 MB

     Dynamical RAM for           str. fact:       2.46 MB

     Dynamical RAM for           local pot:       0.00 MB

     Dynamical RAM for          nlocal pot:      57.44 MB

     Dynamical RAM for                qrad:       2.64 MB

     Dynamical RAM for          rho,v,vnew:      32.54 MB

     Dynamical RAM for               rhoin:      10.85 MB

     Dynamical RAM for            rho*nmix:      78.61 MB

     Dynamical RAM for           G-vectors:       9.45 MB

     Dynamical RAM for          h,s,v(r/c):       3.07 MB

     Dynamical RAM for          <psi|beta>:       7.68 MB

     Dynamical RAM for                 psi:      61.22 MB

     Dynamical RAM for                hpsi:      61.22 MB

     Dynamical RAM for                spsi:      61.22 MB

     Dynamical RAM for      wfcinit/wfcrot:      94.26 MB

     Dynamical RAM for           addusdens:      78.31 MB

     Dynamical RAM for          addusforce:     109.13 MB

     Dynamical RAM for         addusstress:      64.33 MB

     Estimated static dynamical RAM per process >     597.27 MB

     Estimated max dynamical RAM per process >     870.31 MB

     Estimated total dynamical RAM >     100.19 GB

     Check: negative core charge=   -0.000010
     Generating pointlists ...
     new r_m :   0.1191 (alat units)  1.9362 (a.u.) for type    1

     Initial potential from superposition of free atoms

     starting charge     863.9763, renormalised to     864.0000
     Starting wfcs are  702 randomized atomic wfcs

     total cpu time spent up to now is       92.6 secs

     per-process dynamical memory:   819.8 Mb

     Self-consistent Calculation

     iteration #  1     ecut=    90.00 Ry     beta= 0.20
     Davidson diagonalization with overlap

---- Real-time Memory Report at c_bands before calling an iterative solver
           987 MiB given to the printing process from OS
           800 MiB allocation reported by mallinfo(arena+hblkhd)
        365831 MiB available memory on the node where the printing process lives
------------------
     ethr =  1.00E-02,  avg # of iterations =  2.0

     total cpu time spent up to now is      326.3 secs

     total energy              =  -13727.17276093 Ry
     estimated scf accuracy    <      14.51054051 Ry

     total magnetization       =   170.95 Bohr mag/cell
     absolute magnetization    =   173.98 Bohr mag/cell

     iteration #  2     ecut=    90.00 Ry     beta= 0.20
     Davidson diagonalization with overlap

---- Real-time Memory Report at c_bands before calling an iterative solver
          1129 MiB given to the printing process from OS
           825 MiB allocation reported by mallinfo(arena+hblkhd)
        363516 MiB available memory on the node where the printing process lives
------------------
     ethr =  1.68E-03,  avg # of iterations =  3.6

     negative rho (up, down):  0.000E+00 3.068E-03

     total cpu time spent up to now is      549.4 secs

     total energy              =  -13734.27527197 Ry
     estimated scf accuracy    <       9.41055213 Ry

     total magnetization       =   167.57 Bohr mag/cell
     absolute magnetization    =   171.93 Bohr mag/cell

     iteration #  3     ecut=    90.00 Ry     beta= 0.20
     Davidson diagonalization with overlap

---- Real-time Memory Report at c_bands before calling an iterative solver
          1148 MiB given to the printing process from OS
           828 MiB allocation reported by mallinfo(arena+hblkhd)
        363519 MiB available memory on the node where the printing process lives
------------------
     ethr =  1.09E-03,  avg # of iterations =  1.7

     negative rho (up, down):  0.000E+00 3.811E-03

     total cpu time spent up to now is      769.5 secs

     total energy              =  -13735.49307260 Ry
     estimated scf accuracy    <       0.95556862 Ry

     total magnetization       =   142.39 Bohr mag/cell
     absolute magnetization    =   151.79 Bohr mag/cell

     iteration #  4     ecut=    90.00 Ry     beta= 0.20
     Davidson diagonalization with overlap

---- Real-time Memory Report at c_bands before calling an iterative solver
          1151 MiB given to the printing process from OS
           830 MiB allocation reported by mallinfo(arena+hblkhd)
        363459 MiB available memory on the node where the printing process lives
------------------
     ethr =  1.11E-04,  avg # of iterations =  4.6

     negative rho (up, down):  0.000E+00 3.282E-03

     total cpu time spent up to now is     1056.7 secs

     total energy              =  -13735.68974993 Ry
     estimated scf accuracy    <       0.46068058 Ry

     total magnetization       =   121.43 Bohr mag/cell
     absolute magnetization    =   131.55 Bohr mag/cell

     iteration #  5     ecut=    90.00 Ry     beta= 0.20
     Davidson diagonalization with overlap

---- Real-time Memory Report at c_bands before calling an iterative solver
          1154 MiB given to the printing process from OS
           833 MiB allocation reported by mallinfo(arena+hblkhd)
        363379 MiB available memory on the node where the printing process lives
------------------
     ethr =  5.33E-05,  avg # of iterations =  3.8

     negative rho (up, down):  0.000E+00 3.143E-03

     total cpu time spent up to now is     1321.9 secs

     total energy              =  -13736.05075818 Ry
     estimated scf accuracy    <       0.76908923 Ry

     total magnetization       =   137.07 Bohr mag/cell
     absolute magnetization    =   145.61 Bohr mag/cell

     iteration #  6     ecut=    90.00 Ry     beta= 0.20
     Davidson diagonalization with overlap

---- Real-time Memory Report at c_bands before calling an iterative solver
          1157 MiB given to the printing process from OS
           836 MiB allocation reported by mallinfo(arena+hblkhd)
        363322 MiB available memory on the node where the printing process lives
------------------
     ethr =  5.33E-05,  avg # of iterations =  1.0

     negative rho (up, down):  0.000E+00 2.850E-03

     total cpu time spent up to now is     1513.7 secs

     total energy              =  -13736.06127002 Ry
     estimated scf accuracy    <       0.55833057 Ry

     total magnetization       =   137.44 Bohr mag/cell
     absolute magnetization    =   145.73 Bohr mag/cell

     iteration #  7     ecut=    90.00 Ry     beta= 0.20
     Davidson diagonalization with overlap

---- Real-time Memory Report at c_bands before calling an iterative solver
          1160 MiB given to the printing process from OS
           838 MiB allocation reported by mallinfo(arena+hblkhd)
        363281 MiB available memory on the node where the printing process lives
------------------
     ethr =  5.33E-05,  avg # of iterations =  1.1

     negative rho (up, down):  0.000E+00 2.357E-03

     total cpu time spent up to now is     1707.6 secs

     total energy              =  -13736.04180361 Ry
     estimated scf accuracy    <       0.37354830 Ry

     total magnetization       =   134.36 Bohr mag/cell
     absolute magnetization    =   142.55 Bohr mag/cell

     iteration #  8     ecut=    90.00 Ry     beta= 0.20
     Davidson diagonalization with overlap

---- Real-time Memory Report at c_bands before calling an iterative solver
          1162 MiB given to the printing process from OS
           840 MiB allocation reported by mallinfo(arena+hblkhd)
        363249 MiB available memory on the node where the printing process lives
------------------
     ethr =  4.32E-05,  avg # of iterations =  1.9

     negative rho (up, down):  0.000E+00 2.055E-03

     total cpu time spent up to now is     1931.4 secs

     total energy              =  -13736.12619911 Ry
     estimated scf accuracy    <       0.04411178 Ry

     total magnetization       =   125.86 Bohr mag/cell
     absolute magnetization    =   134.07 Bohr mag/cell

     iteration #  9     ecut=    90.00 Ry     beta= 0.20
     Davidson diagonalization with overlap

---- Real-time Memory Report at c_bands before calling an iterative solver
          1164 MiB given to the printing process from OS
           842 MiB allocation reported by mallinfo(arena+hblkhd)
        363195 MiB available memory on the node where the printing process lives
------------------
     ethr =  5.11E-06,  avg # of iterations =  4.4

     negative rho (up, down):  0.000E+00 1.772E-03

     total cpu time spent up to now is     2194.1 secs

     total energy              =  -13736.14882899 Ry
     estimated scf accuracy    <       0.02693610 Ry

     total magnetization       =   122.15 Bohr mag/cell
     absolute magnetization    =   130.08 Bohr mag/cell

     iteration # 10     ecut=    90.00 Ry     beta= 0.20
     Davidson diagonalization with overlap

---- Real-time Memory Report at c_bands before calling an iterative solver
          1165 MiB given to the printing process from OS
           845 MiB allocation reported by mallinfo(arena+hblkhd)
        363037 MiB available memory on the node where the printing process lives
------------------
     ethr =  3.12E-06,  avg # of iterations =  3.6

     negative rho (up, down):  0.000E+00 1.854E-03

     total cpu time spent up to now is     2433.0 secs

     total energy              =  -13736.15328220 Ry
     estimated scf accuracy    <       0.01496055 Ry

     total magnetization       =   119.92 Bohr mag/cell
     absolute magnetization    =   127.55 Bohr mag/cell

     iteration # 11     ecut=    90.00 Ry     beta= 0.20
     Davidson diagonalization with overlap

---- Real-time Memory Report at c_bands before calling an iterative solver
          1168 MiB given to the printing process from OS
           845 MiB allocation reported by mallinfo(arena+hblkhd)
        363099 MiB available memory on the node where the printing process lives
------------------
     ethr =  1.73E-06,  avg # of iterations =  2.3

     negative rho (up, down):  0.000E+00 1.833E-03

     total cpu time spent up to now is     2668.2 secs

     total energy              =  -13736.15776832 Ry
     estimated scf accuracy    <       0.00371216 Ry

     total magnetization       =   121.00 Bohr mag/cell
     absolute magnetization    =   128.56 Bohr mag/cell

     iteration # 12     ecut=    90.00 Ry     beta= 0.20
     Davidson diagonalization with overlap

---- Real-time Memory Report at c_bands before calling an iterative solver
          1168 MiB given to the printing process from OS
           845 MiB allocation reported by mallinfo(arena+hblkhd)
        363074 MiB available memory on the node where the printing process lives
------------------
     ethr =  4.30E-07,  avg # of iterations =  6.1

     negative rho (up, down):  0.000E+00 1.732E-03

     total cpu time spent up to now is     3031.0 secs

     total energy              =  -13736.15118695 Ry
     estimated scf accuracy    <       0.01127014 Ry

     total magnetization       =   120.84 Bohr mag/cell
     absolute magnetization    =   128.03 Bohr mag/cell

     iteration # 13     ecut=    90.00 Ry     beta= 0.20
     Davidson diagonalization with overlap

---- Real-time Memory Report at c_bands before calling an iterative solver
          1168 MiB given to the printing process from OS
           845 MiB allocation reported by mallinfo(arena+hblkhd)
        363027 MiB available memory on the node where the printing process lives
------------------
     ethr =  4.30E-07,  avg # of iterations =  4.5

     negative rho (up, down):  0.000E+00 1.788E-03

     total cpu time spent up to now is     3351.2 secs

     total energy              =  -13736.15938049 Ry
     estimated scf accuracy    <       0.00290226 Ry

     total magnetization       =   119.01 Bohr mag/cell
     absolute magnetization    =   125.92 Bohr mag/cell

     iteration # 14     ecut=    90.00 Ry     beta= 0.20
     Davidson diagonalization with overlap

---- Real-time Memory Report at c_bands before calling an iterative solver
          1168 MiB given to the printing process from OS
           845 MiB allocation reported by mallinfo(arena+hblkhd)
        363000 MiB available memory on the node where the printing process lives
------------------
     ethr =  3.36E-07,  avg # of iterations =  2.0

     negative rho (up, down):  0.000E+00 1.832E-03

     total cpu time spent up to now is     3562.0 secs

     total energy              =  -13736.16020228 Ry
     estimated scf accuracy    <       0.00076870 Ry

     total magnetization       =   119.63 Bohr mag/cell
     absolute magnetization    =   126.59 Bohr mag/cell

     iteration # 15     ecut=    90.00 Ry     beta= 0.20
     Davidson diagonalization with overlap

---- Real-time Memory Report at c_bands before calling an iterative solver
          1168 MiB given to the printing process from OS
           845 MiB allocation reported by mallinfo(arena+hblkhd)
        362993 MiB available memory on the node where the printing process lives
------------------
     ethr =  8.90E-08,  avg # of iterations =  4.1

     negative rho (up, down):  0.000E+00 1.837E-03

     total cpu time spent up to now is     3799.2 secs

     total energy              =  -13736.16053679 Ry
     estimated scf accuracy    <       0.00009912 Ry

     total magnetization       =   120.03 Bohr mag/cell
     absolute magnetization    =   127.06 Bohr mag/cell

     iteration # 16     ecut=    90.00 Ry     beta= 0.20
     Davidson diagonalization with overlap

---- Real-time Memory Report at c_bands before calling an iterative solver
          1168 MiB given to the printing process from OS
           845 MiB allocation reported by mallinfo(arena+hblkhd)
        362980 MiB available memory on the node where the printing process lives
------------------
     ethr =  1.15E-08,  avg # of iterations =  4.4

     negative rho (up, down):  0.000E+00 1.817E-03

     total cpu time spent up to now is     4049.9 secs

     total energy              =  -13736.16057449 Ry
     estimated scf accuracy    <       0.00012807 Ry

     total magnetization       =   120.13 Bohr mag/cell
     absolute magnetization    =   127.17 Bohr mag/cell

     iteration # 17     ecut=    90.00 Ry     beta= 0.20
     Davidson diagonalization with overlap

---- Real-time Memory Report at c_bands before calling an iterative solver
          1168 MiB given to the printing process from OS
           845 MiB allocation reported by mallinfo(arena+hblkhd)
        362953 MiB available memory on the node where the printing process lives
------------------
     ethr =  1.15E-08,  avg # of iterations =  3.2

     negative rho (up, down):  0.000E+00 1.832E-03

     total cpu time spent up to now is     4289.2 secs

     total energy              =  -13736.16062147 Ry
     estimated scf accuracy    <       0.00010413 Ry

     total magnetization       =   120.08 Bohr mag/cell
     absolute magnetization    =   127.07 Bohr mag/cell

     iteration # 18     ecut=    90.00 Ry     beta= 0.20
     Davidson diagonalization with overlap

---- Real-time Memory Report at c_bands before calling an iterative solver
          1168 MiB given to the printing process from OS
           845 MiB allocation reported by mallinfo(arena+hblkhd)
        362943 MiB available memory on the node where the printing process lives
------------------
     ethr =  1.15E-08,  avg # of iterations =  2.6

     negative rho (up, down):  0.000E+00 1.828E-03

     total cpu time spent up to now is     4516.8 secs

     total energy              =  -13736.16067414 Ry
     estimated scf accuracy    <       0.00009769 Ry

     total magnetization       =   120.15 Bohr mag/cell
     absolute magnetization    =   127.17 Bohr mag/cell

     iteration # 19     ecut=    90.00 Ry     beta= 0.20
     Davidson diagonalization with overlap

---- Real-time Memory Report at c_bands before calling an iterative solver
          1168 MiB given to the printing process from OS
           845 MiB allocation reported by mallinfo(arena+hblkhd)
        362939 MiB available memory on the node where the printing process lives
------------------
     ethr =  1.13E-08,  avg # of iterations =  1.2

     negative rho (up, down):  0.000E+00 1.828E-03

     total cpu time spent up to now is     4715.5 secs

     total energy              =  -13736.16068857 Ry
     estimated scf accuracy    <       0.00001081 Ry

     total magnetization       =   120.16 Bohr mag/cell
     absolute magnetization    =   127.17 Bohr mag/cell

     iteration # 20     ecut=    90.00 Ry     beta= 0.20
     Davidson diagonalization with overlap

---- Real-time Memory Report at c_bands before calling an iterative solver
          1168 MiB given to the printing process from OS
           845 MiB allocation reported by mallinfo(arena+hblkhd)
        362927 MiB available memory on the node where the printing process lives
------------------
     ethr =  1.25E-09,  avg # of iterations =  2.5

     negative rho (up, down):  0.000E+00 1.827E-03

     total cpu time spent up to now is     4932.4 secs

     total energy              =  -13736.16069741 Ry
     estimated scf accuracy    <       0.00000848 Ry

     total magnetization       =   120.15 Bohr mag/cell
     absolute magnetization    =   127.16 Bohr mag/cell

     iteration # 21     ecut=    90.00 Ry     beta= 0.20
     Davidson diagonalization with overlap

---- Real-time Memory Report at c_bands before calling an iterative solver
          1168 MiB given to the printing process from OS
           845 MiB allocation reported by mallinfo(arena+hblkhd)
        362921 MiB available memory on the node where the printing process lives
------------------
     ethr =  9.82E-10,  avg # of iterations =  2.4

     negative rho (up, down):  0.000E+00 1.827E-03

     total cpu time spent up to now is     5152.3 secs

     total energy              =  -13736.16070364 Ry
     estimated scf accuracy    <       0.00000581 Ry

     total magnetization       =   120.15 Bohr mag/cell
     absolute magnetization    =   127.15 Bohr mag/cell

     iteration # 22     ecut=    90.00 Ry     beta= 0.20
     Davidson diagonalization with overlap

---- Real-time Memory Report at c_bands before calling an iterative solver
          1168 MiB given to the printing process from OS
           845 MiB allocation reported by mallinfo(arena+hblkhd)
        362912 MiB available memory on the node where the printing process lives
------------------
     ethr =  6.72E-10,  avg # of iterations =  1.0

     negative rho (up, down):  0.000E+00 1.828E-03

     total cpu time spent up to now is     5341.0 secs

     total energy              =  -13736.16070726 Ry
     estimated scf accuracy    <       0.00000089 Ry

     total magnetization       =   120.16 Bohr mag/cell
     absolute magnetization    =   127.15 Bohr mag/cell

     iteration # 23     ecut=    90.00 Ry     beta= 0.20
     Davidson diagonalization with overlap

---- Real-time Memory Report at c_bands before calling an iterative solver
          1168 MiB given to the printing process from OS
           845 MiB allocation reported by mallinfo(arena+hblkhd)
        362905 MiB available memory on the node where the printing process lives
------------------
     ethr =  1.03E-10,  avg # of iterations =  4.3

     negative rho (up, down):  0.000E+00 1.827E-03

     total cpu time spent up to now is     5587.0 secs

     total energy              =  -13736.16070933 Ry
     estimated scf accuracy    <       0.00000169 Ry

     total magnetization       =   120.16 Bohr mag/cell
     absolute magnetization    =   127.15 Bohr mag/cell

     iteration # 24     ecut=    90.00 Ry     beta= 0.20
     Davidson diagonalization with overlap

---- Real-time Memory Report at c_bands before calling an iterative solver
          1168 MiB given to the printing process from OS
           845 MiB allocation reported by mallinfo(arena+hblkhd)
        362874 MiB available memory on the node where the printing process lives
------------------
     ethr =  1.03E-10,  avg # of iterations =  2.3

     negative rho (up, down):  0.000E+00 1.828E-03

     total cpu time spent up to now is     5806.4 secs

     total energy              =  -13736.16071091 Ry
     estimated scf accuracy    <       0.00000063 Ry

     total magnetization       =   120.16 Bohr mag/cell
     absolute magnetization    =   127.15 Bohr mag/cell

     iteration # 25     ecut=    90.00 Ry     beta= 0.20
     Davidson diagonalization with overlap

---- Real-time Memory Report at c_bands before calling an iterative solver
          1168 MiB given to the printing process from OS
           845 MiB allocation reported by mallinfo(arena+hblkhd)
        362868 MiB available memory on the node where the printing process lives
------------------
     ethr =  7.30E-11,  avg # of iterations =  1.7

     negative rho (up, down):  0.000E+00 1.830E-03

     total cpu time spent up to now is     6014.3 secs

     total energy              =  -13736.16071202 Ry
     estimated scf accuracy    <       0.00000083 Ry

     total magnetization       =   120.16 Bohr mag/cell
     absolute magnetization    =   127.15 Bohr mag/cell

     iteration # 26     ecut=    90.00 Ry     beta= 0.20
     Davidson diagonalization with overlap

---- Real-time Memory Report at c_bands before calling an iterative solver
          1168 MiB given to the printing process from OS
           845 MiB allocation reported by mallinfo(arena+hblkhd)
        362855 MiB available memory on the node where the printing process lives
------------------
     ethr =  7.30E-11,  avg # of iterations =  1.6

     negative rho (up, down):  0.000E+00 1.829E-03

     total cpu time spent up to now is     6224.2 secs

     total energy              =  -13736.16071243 Ry
     estimated scf accuracy    <       0.00000095 Ry

     total magnetization       =   120.16 Bohr mag/cell
     absolute magnetization    =   127.15 Bohr mag/cell

     iteration # 27     ecut=    90.00 Ry     beta= 0.20
     Davidson diagonalization with overlap

---- Real-time Memory Report at c_bands before calling an iterative solver
          1168 MiB given to the printing process from OS
           845 MiB allocation reported by mallinfo(arena+hblkhd)
        362845 MiB available memory on the node where the printing process lives
------------------
     ethr =  7.30E-11,  avg # of iterations =  1.9

     negative rho (up, down):  0.000E+00 1.831E-03

     total cpu time spent up to now is     6434.2 secs

     total energy              =  -13736.16071299 Ry
     estimated scf accuracy    <       0.00000043 Ry

     total magnetization       =   120.16 Bohr mag/cell
     absolute magnetization    =   127.15 Bohr mag/cell

     iteration # 28     ecut=    90.00 Ry     beta= 0.20
     Davidson diagonalization with overlap

---- Real-time Memory Report at c_bands before calling an iterative solver
          1168 MiB given to the printing process from OS
           845 MiB allocation reported by mallinfo(arena+hblkhd)
        362836 MiB available memory on the node where the printing process lives
------------------
     ethr =  4.94E-11,  avg # of iterations =  2.0

     negative rho (up, down):  0.000E+00 1.830E-03

     total cpu time spent up to now is     6648.8 secs

     total energy              =  -13736.16071327 Ry
     estimated scf accuracy    <       0.00000009 Ry

     total magnetization       =   120.16 Bohr mag/cell
     absolute magnetization    =   127.15 Bohr mag/cell

     iteration # 29     ecut=    90.00 Ry     beta= 0.20
     Davidson diagonalization with overlap

---- Real-time Memory Report at c_bands before calling an iterative solver
          1168 MiB given to the printing process from OS
           845 MiB allocation reported by mallinfo(arena+hblkhd)
        362809 MiB available memory on the node where the printing process lives
------------------
     ethr =  1.00E-11,  avg # of iterations =  2.8

     negative rho (up, down):  0.000E+00 1.830E-03

     total cpu time spent up to now is     6871.3 secs

     total energy              =  -13736.16071342 Ry
     estimated scf accuracy    <       0.00000021 Ry

     total magnetization       =   120.16 Bohr mag/cell
     absolute magnetization    =   127.15 Bohr mag/cell

     iteration # 30     ecut=    90.00 Ry     beta= 0.20
     Davidson diagonalization with overlap

---- Real-time Memory Report at c_bands before calling an iterative solver
          1168 MiB given to the printing process from OS
           845 MiB allocation reported by mallinfo(arena+hblkhd)
        362797 MiB available memory on the node where the printing process lives
------------------
     ethr =  1.00E-11,  avg # of iterations =  2.8

     negative rho (up, down):  0.000E+00 1.830E-03

     total cpu time spent up to now is     7104.0 secs

     total energy              =  -13736.16071353 Ry
     estimated scf accuracy    <       0.00000007 Ry

     total magnetization       =   120.16 Bohr mag/cell
     absolute magnetization    =   127.15 Bohr mag/cell

     iteration # 31     ecut=    90.00 Ry     beta= 0.20
     Davidson diagonalization with overlap

---- Real-time Memory Report at c_bands before calling an iterative solver
          1168 MiB given to the printing process from OS
           845 MiB allocation reported by mallinfo(arena+hblkhd)
        362783 MiB available memory on the node where the printing process lives
------------------
     ethr =  8.48E-12,  avg # of iterations =  2.2

     negative rho (up, down):  0.000E+00 1.830E-03

     total cpu time spent up to now is     7319.8 secs

     total energy              =  -13736.16071360 Ry
     estimated scf accuracy    <       0.00000008 Ry

     total magnetization       =   120.16 Bohr mag/cell
     absolute magnetization    =   127.15 Bohr mag/cell

     iteration # 32     ecut=    90.00 Ry     beta= 0.20
     Davidson diagonalization with overlap

---- Real-time Memory Report at c_bands before calling an iterative solver
          1168 MiB given to the printing process from OS
           845 MiB allocation reported by mallinfo(arena+hblkhd)
        362772 MiB available memory on the node where the printing process lives
------------------
     ethr =  8.48E-12,  avg # of iterations =  2.0

     negative rho (up, down):  0.000E+00 1.830E-03

     total cpu time spent up to now is     7537.2 secs

     total energy              =  -13736.16071364 Ry
     estimated scf accuracy    <       0.00000005 Ry

     total magnetization       =   120.16 Bohr mag/cell
     absolute magnetization    =   127.15 Bohr mag/cell

     iteration # 33     ecut=    90.00 Ry     beta= 0.20
     Davidson diagonalization with overlap

---- Real-time Memory Report at c_bands before calling an iterative solver
          1168 MiB given to the printing process from OS
           845 MiB allocation reported by mallinfo(arena+hblkhd)
        362767 MiB available memory on the node where the printing process lives
------------------
     ethr =  5.29E-12,  avg # of iterations =  2.0

     negative rho (up, down):  0.000E+00 1.830E-03

     total cpu time spent up to now is     7746.4 secs

     total energy              =  -13736.16071367 Ry
     estimated scf accuracy    <       0.00000003 Ry

     total magnetization       =   120.16 Bohr mag/cell
     absolute magnetization    =   127.15 Bohr mag/cell

     iteration # 34     ecut=    90.00 Ry     beta= 0.20
     Davidson diagonalization with overlap

---- Real-time Memory Report at c_bands before calling an iterative solver
          1168 MiB given to the printing process from OS
           845 MiB allocation reported by mallinfo(arena+hblkhd)
        362762 MiB available memory on the node where the printing process lives
------------------
     ethr =  3.67E-12,  avg # of iterations =  1.7

     negative rho (up, down):  0.000E+00 1.830E-03

     Magnetic moment per site  (integrated on atomic sphere of radius R)
     atom   1 (R=0.119)  charge= 14.4214  magn=  2.2809
     atom   2 (R=0.119)  charge= 14.4214  magn=  2.2808
     atom   3 (R=0.119)  charge= 14.4214  magn=  2.2808
     atom   4 (R=0.119)  charge= 14.4214  magn=  2.2807
     atom   5 (R=0.119)  charge= 14.4214  magn=  2.2808
     atom   6 (R=0.119)  charge= 14.4214  magn=  2.2808
     atom   7 (R=0.119)  charge= 14.4214  magn=  2.2808
     atom   8 (R=0.119)  charge= 14.4214  magn=  2.2807
     atom   9 (R=0.119)  charge= 14.4214  magn=  2.2807
     atom  10 (R=0.119)  charge= 14.4214  magn=  2.2807
     atom  11 (R=0.119)  charge= 14.4214  magn=  2.2807
     atom  12 (R=0.119)  charge= 14.4214  magn=  2.2807
     atom  13 (R=0.119)  charge= 14.4214  magn=  2.2808
     atom  14 (R=0.119)  charge= 14.4214  magn=  2.2808
     atom  15 (R=0.119)  charge= 14.4214  magn=  2.2807
     atom  16 (R=0.119)  charge= 14.4214  magn=  2.2807
     atom  17 (R=0.119)  charge= 14.4214  magn=  2.2807
     atom  18 (R=0.119)  charge= 14.4214  magn=  2.2808
     atom  19 (R=0.119)  charge= 14.4214  magn=  2.2808
     atom  20 (R=0.119)  charge= 14.4214  magn=  2.2807
     atom  21 (R=0.119)  charge= 14.4214  magn=  2.2807
     atom  22 (R=0.119)  charge= 14.4214  magn=  2.2807
     atom  23 (R=0.119)  charge= 14.4214  magn=  2.2807
     atom  24 (R=0.119)  charge= 14.4214  magn=  2.2807
     atom  25 (R=0.119)  charge= 14.4214  magn=  2.2807
     atom  26 (R=0.119)  charge= 14.4214  magn=  2.2807
     atom  27 (R=0.119)  charge= 14.4214  magn=  2.2807
     atom  28 (R=0.119)  charge= 14.4214  magn=  2.2807
     atom  29 (R=0.119)  charge= 14.4214  magn=  2.2807
     atom  30 (R=0.119)  charge= 14.4214  magn=  2.2807
     atom  31 (R=0.119)  charge= 14.4214  magn=  2.2807
     atom  32 (R=0.119)  charge= 14.4214  magn=  2.2807
     atom  33 (R=0.119)  charge= 14.4214  magn=  2.2807
     atom  34 (R=0.119)  charge= 14.4214  magn=  2.2807
     atom  35 (R=0.119)  charge= 14.4214  magn=  2.2807
     atom  36 (R=0.119)  charge= 14.4214  magn=  2.2807
     atom  37 (R=0.119)  charge= 14.4214  magn=  2.2808
     atom  38 (R=0.119)  charge= 14.4214  magn=  2.2808
     atom  39 (R=0.119)  charge= 14.4214  magn=  2.2807
     atom  40 (R=0.119)  charge= 14.4214  magn=  2.2807
     atom  41 (R=0.119)  charge= 14.4214  magn=  2.2807
     atom  42 (R=0.119)  charge= 14.4214  magn=  2.2808
     atom  43 (R=0.119)  charge= 14.4214  magn=  2.2807
     atom  44 (R=0.119)  charge= 14.4214  magn=  2.2807
     atom  45 (R=0.119)  charge= 14.4214  magn=  2.2807
     atom  46 (R=0.119)  charge= 14.4214  magn=  2.2807
     atom  47 (R=0.119)  charge= 14.4214  magn=  2.2807
     atom  48 (R=0.119)  charge= 14.4214  magn=  2.2807
     atom  49 (R=0.119)  charge= 14.4214  magn=  2.2807
     atom  50 (R=0.119)  charge= 14.4214  magn=  2.2808
     atom  51 (R=0.119)  charge= 14.4214  magn=  2.2807
     atom  52 (R=0.119)  charge= 14.4214  magn=  2.2807
     atom  53 (R=0.119)  charge= 14.4214  magn=  2.2807
     atom  54 (R=0.119)  charge= 14.4214  magn=  2.2808

     total cpu time spent up to now is     7950.4 secs

     End of self-consistent calculation

 ------ SPIN UP ------------


          k = 0.0000 0.0000 0.0000 ( 62093 PWs)   bands (ev):

   -70.6942 -70.6620 -70.6620 -70.6620 -70.6620 -70.6619 -70.6619 -70.6441
   -70.6441 -70.6441 -70.6441 -70.6441 -70.6441 -70.6441 -70.6441 -70.6441
   -70.6441 -70.6441 -70.6441 -70.6336 -70.6336 -70.6336 -70.6336 -70.6336
   -70.6336 -70.6336 -70.6336 -70.6190 -70.6190 -70.6190 -70.6190 -70.6190
   -70.6190 -70.6190 -70.6190 -70.6150 -70.6150 -70.6150 -70.6150 -70.6150
   -70.6150 -70.6150 -70.6150 -70.6150 -70.6149 -70.6149 -70.6149 -70.6037
   -70.6037 -70.6037 -70.6037 -70.6037 -70.6037 -70.5777 -36.8615 -36.8615
   -36.8615 -36.8615 -36.8615 -36.8615 -36.8615 -36.8615 -36.8615 -36.8615
   -36.8615 -36.8615 -36.8099 -36.8099 -36.8099 -36.8099 -36.8099 -36.8099
   -36.8099 -36.8099 -36.7974 -36.7974 -36.7974 -36.7974 -36.7974 -36.7974
   -36.7974 -36.7974 -36.7974 -36.7974 -36.7974 -36.7974 -36.7868 -36.7868
   -36.7868 -36.7747 -36.7747 -36.7747 -36.7747 -36.7747 -36.7747 -36.7747
   -36.7747 -36.7747 -36.7747 -36.7747 -36.7747 -36.7747 -36.7747 -36.7747
   -36.7747 -36.7632 -36.7632 -36.7632 -36.7632 -36.7632 -36.7632 -36.7188
   -36.7188 -36.7188 -36.7188 -36.7188 -36.7188 -36.7188 -36.7188 -36.7188
   -36.7188 -36.7188 -36.7188 -36.6827 -36.6827 -36.6827 -36.6827 -36.6827
   -36.6827 -36.6827 -36.6827 -36.6827 -36.6827 -36.6827 -36.6827 -36.6331
   -36.6331 -36.6331 -36.6331 -36.6331 -36.6331 -36.6175 -36.6175 -36.6175
   -36.6175 -36.6175 -36.6175 -36.6175 -36.6175 -36.6175 -36.6175 -36.6175
   -36.6175 -36.6065 -36.6065 -36.6065 -36.6065 -36.6065 -36.6065 -36.6065
   -36.6065 -36.6065 -36.6065 -36.6065 -36.6065 -36.6065 -36.6065 -36.6065
   -36.6065 -36.5914 -36.5914 -36.5914 -36.5914 -36.5914 -36.5914 -36.5914
   -36.5914 -36.5914 -36.5914 -36.5914 -36.5914 -36.5883 -36.5883 -36.5883
   -36.5883 -36.5883 -36.5883 -36.5883 -36.5883 -36.5883 -36.5883 -36.5883
   -36.5883 -36.5713 -36.5713 -36.5713 -36.5713 -36.5713 -36.5713 -36.5713
   -36.5713 -36.5258 -36.5258 -36.5258 -36.5254 -36.5254 -36.5254 -36.5254
   -36.5254 -36.5254 -36.5254 -36.5254 -36.5254 -36.5254 -36.5254 -36.5254
     9.1288  11.1767  11.1767  11.1767  11.1767  11.1767  11.1767  12.3208
    12.3208  12.3208  12.3208  12.3208  12.3208  12.3208  12.3208  12.3208
    12.3208  12.3208  12.3208  12.7606  12.7606  13.1742  13.1742  13.1742
    13.1742  13.1742  13.1742  13.1742  13.1742  13.1742  13.1742  13.1742
    13.1742  13.3389  13.3389  13.3389  13.3389  13.3389  13.3389  13.6349
    13.6349  13.6349  13.6349  13.6349  13.6349  13.8135  13.8135  13.8135
    13.8135  13.8135  13.8135  13.8135  13.8135  13.8759  13.8759  13.8759
    13.8759  13.8759  13.8759  13.8759  13.8759  14.1999  14.1999  14.1999
    14.1999  14.1999  14.1999  14.1999  14.1999  14.1999  14.1999  14.1999
    14.1999  14.1999  14.1999  14.1999  14.1999  14.4109  14.4109  14.4109
    14.4109  14.4109  14.4109  14.4109  14.4109  14.4109  14.4109  14.4109
    14.4109  14.4120  14.4120  14.4120  14.4120  14.4120  14.4120  14.4120
    14.4120  14.4120  14.4120  14.4120  14.4120  14.4120  14.4120  14.4120
    14.4120  14.6864  14.6864  14.6864  14.6864  14.6864  14.6864  14.6864
    14.6864  14.6864  14.6864  14.6864  14.6864  14.8246  14.8246  14.8246
    14.8246  14.8246  14.8246  14.8246  14.8246  14.8246  14.8246  14.8246
    14.8246  15.1968  15.1968  15.1968  15.2870  15.2870  15.2870  15.2870
    15.2870  15.2870  15.2870  15.2870  15.2870  15.2870  15.2870  15.2870
    15.4327  15.4327  15.4327  15.4327  15.4327  15.4328  15.4816  15.4816
    15.4816  15.4816  15.4816  15.4816  15.4816  15.4816  15.4816  15.4817
    15.4817  15.4817  15.7559  15.7559  15.7560  15.7560  15.7560  15.7560
    16.0513  16.0513  16.0513  16.0513  16.0513  16.0513  16.0513  16.0513
    16.0513  16.0513  16.0513  16.0513  16.2763  16.2763  16.2763  16.2763
    16.2763  16.2763  16.2763  16.2763  16.2763  16.2764  16.2764  16.2764
    16.3294  16.3294  16.3294  16.3294  16.3294  16.3295  16.3295  16.3295
    16.3295  16.3295  16.3295  16.3295  16.3310  16.3310  16.4455  16.4455
    16.4455  16.4455  16.4455  16.4455  16.4455  16.4455  16.4455  16.4455
    16.4455  16.4455  16.4551  16.4551  16.4551  16.4551  16.4551  16.4551
    16.4551  16.4551  16.4551  16.4551  16.4551  16.4551  16.4551  16.4551
    16.4551  16.4551  16.6264  16.6264  16.6264  16.6264  16.6264  16.6264
    16.6264  16.6264  16.6264  16.6264  16.6264  16.6264  16.6264  16.6264
    16.6264  16.6264  16.7006  16.7006  16.7007  16.7007  16.7007  16.7007
    16.9100  16.9100  16.9100  16.9100  16.9100  16.9100  17.0268  17.0268
    17.0268  17.0268  17.0268  17.0268  17.0268  17.0268  17.0268  17.0268
    17.0268  17.0268  17.5038  17.5038  17.5038  17.6958  17.6958  17.6958
    17.6958  17.6958  17.6958  17.6958  17.6958  17.6958  17.6958  17.6958
    17.6958  19.3609  19.3609  19.3609  19.3609  19.3609  19.3609  19.3609
    19.3609  20.1396  20.1396  20.1396  20.1396  20.1396

     occupation numbers 
     1.0000   1.0000   1.0000   1.0000   1.0000   1.0000   1.0000   1.0000
     1.0000   1.0000   1.0000   1.0000   1.0000   1.0000   1.0000   1.0000
     1.0000   1.0000   1.0000   1.0000   1.0000   1.0000   1.0000   1.0000
     1.0000   1.0000   1.0000   1.0000   1.0000   1.0000   1.0000   1.0000
     1.0000   1.0000   1.0000   1.0000   1.0000   1.0000   1.0000   1.0000
     1.0000   1.0000   1.0000   1.0000   1.0000   1.0000   1.0000   1.0000
     1.0000   1.0000   1.0000   1.0000   1.0000   1.0000   1.0000   1.0000
     1.0000   1.0000   1.0000   1.0000   1.0000   1.0000   1.0000   1.0000
     1.0000   1.0000   1.0000   1.0000   1.0000   1.0000   1.0000   1.0000
     1.0000   1.0000   1.0000   1.0000   1.0000   1.0000   1.0000   1.0000
     1.0000   1.0000   1.0000   1.0000   1.0000   1.0000   1.0000   1.0000
     1.0000   1.0000   1.0000   1.0000   1.0000   1.0000   1.0000   1.0000
     1.0000   1.0000   1.0000   1.0000   1.0000   1.0000   1.0000   1.0000
     1.0000   1.0000   1.0000   1.0000   1.0000   1.0000   1.0000   1.0000
     1.0000   1.0000   1.0000   1.0000   1.0000   1.0000   1.0000   1.0000
     1.0000   1.0000   1.0000   1.0000   1.0000   1.0000   1.0000   1.0000
     1.0000   1.0000   1.0000   1.0000   1.0000   1.0000   1.0000   1.0000
     1.0000   1.0000   1.0000   1.0000   1.0000   1.0000   1.0000   1.0000
     1.0000   1.0000   1.0000   1.0000   1.0000   1.0000   1.0000   1.0000
     1.0000   1.0000   1.0000   1.0000   1.0000   1.0000   1.0000   1.0000
     1.0000   1.0000   1.0000   1.0000   1.0000   1.0000   1.0000   1.0000
     1.0000   1.0000   1.0000   1.0000   1.0000   1.0000   1.0000   1.0000
     1.0000   1.0000   1.0000   1.0000   1.0000   1.0000   1.0000   1.0000
     1.0000   1.0000   1.0000   1.0000   1.0000   1.0000   1.0000   1.0000
     1.0000   1.0000   1.0000   1.0000   1.0000   1.0000   1.0000   1.0000
     1.0000   1.0000   1.0000   1.0000   1.0000   1.0000   1.0000   1.0000
     1.0000   1.0000   1.0000   1.0000   1.0000   1.0000   1.0000   1.0000
     1.0000   1.0000   1.0000   1.0000   1.0000   1.0000   1.0000   1.0000
     1.0000   1.0000   1.0000   1.0000   1.0000   1.0000   1.0000   1.0000
     1.0000   1.0000   1.0000   1.0000   1.0000   1.0000   1.0000   1.0000
     1.0000   1.0000   1.0000   1.0000   1.0000   1.0000   1.0000   1.0000
     1.0000   1.0000   1.0000   1.0000   1.0000   1.0000   1.0000   1.0000
     1.0000   1.0000   1.0000   1.0000   1.0000   1.0000   1.0000   1.0000
     1.0000   1.0000   1.0000   1.0000   1.0000   1.0000   1.0000   1.0000
     1.0000   1.0000   1.0000   1.0000   1.0000   1.0000   1.0000   1.0000
     1.0000   1.0000   1.0000   1.0000   1.0000   1.0000   1.0000   1.0000
     1.0000   1.0000   1.0000   1.0000   1.0000   1.0000   1.0000   1.0000
     1.0000   1.0000   1.0000   1.0000   1.0000   1.0000   1.0000   1.0000
     1.0000   1.0000   1.0000   1.0000   1.0000   1.0000   1.0000   1.0000
     1.0000   1.0000   1.0000   1.0000   1.0000   1.0000   1.0000   1.0000
     1.0000   1.0000   1.0000   1.0000   1.0000   1.0000   1.0000   1.0000
[...]
     atom   45 type  1   force =     0.00000004   -0.00000004   -0.00000004
     atom   46 type  1   force =     0.00000015   -0.00000000   -0.00000000
     atom   47 type  1   force =     0.00000004   -0.00000004    0.00000004
     atom   48 type  1   force =    -0.00000001   -0.00000000   -0.00000001
     atom   49 type  1   force =    -0.00000013   -0.00000013    0.00000000
     atom   50 type  1   force =    -0.00000017   -0.00000017    0.00000017
     atom   51 type  1   force =     0.00000004    0.00000004   -0.00000004
     atom   52 type  1   force =    -0.00000001   -0.00000001   -0.00000000
     atom   53 type  1   force =     0.00000004    0.00000004    0.00000004
     atom   54 type  1   force =    -0.00000017   -0.00000017   -0.00000017
     The Hubbard contrib.    to forces
     atom    1 type  1   force =     0.00000000    0.00000000    0.00000000
     atom    2 type  1   force =     0.00000000    0.00000000    0.00000000
     atom    3 type  1   force =     0.00000000    0.00000000    0.00000000
     atom    4 type  1   force =     0.00000000    0.00000000    0.00000000
     atom    5 type  1   force =     0.00000000    0.00000000    0.00000000
     atom    6 type  1   force =     0.00000000    0.00000000    0.00000000
     atom    7 type  1   force =     0.00000000    0.00000000    0.00000000
     atom    8 type  1   force =     0.00000000    0.00000000    0.00000000
     atom    9 type  1   force =     0.00000000    0.00000000    0.00000000
     atom   10 type  1   force =     0.00000000    0.00000000    0.00000000
     atom   11 type  1   force =     0.00000000    0.00000000    0.00000000
     atom   12 type  1   force =     0.00000000    0.00000000    0.00000000
     atom   13 type  1   force =     0.00000000    0.00000000    0.00000000
     atom   14 type  1   force =     0.00000000    0.00000000    0.00000000
     atom   15 type  1   force =     0.00000000    0.00000000    0.00000000
     atom   16 type  1   force =     0.00000000    0.00000000    0.00000000
     atom   17 type  1   force =     0.00000000    0.00000000    0.00000000
     atom   18 type  1   force =     0.00000000    0.00000000    0.00000000
     atom   19 type  1   force =     0.00000000    0.00000000    0.00000000
     atom   20 type  1   force =     0.00000000    0.00000000    0.00000000
     atom   21 type  1   force =     0.00000000    0.00000000    0.00000000
     atom   22 type  1   force =     0.00000000    0.00000000    0.00000000
     atom   23 type  1   force =     0.00000000    0.00000000    0.00000000
     atom   24 type  1   force =     0.00000000    0.00000000    0.00000000
     atom   25 type  1   force =     0.00000000    0.00000000    0.00000000
     atom   26 type  1   force =     0.00000000    0.00000000    0.00000000
     atom   27 type  1   force =     0.00000000    0.00000000    0.00000000
     atom   28 type  1   force =     0.00000000    0.00000000    0.00000000
     atom   29 type  1   force =     0.00000000    0.00000000    0.00000000
     atom   30 type  1   force =     0.00000000    0.00000000    0.00000000
     atom   31 type  1   force =     0.00000000    0.00000000    0.00000000
     atom   32 type  1   force =     0.00000000    0.00000000    0.00000000
     atom   33 type  1   force =     0.00000000    0.00000000    0.00000000
     atom   34 type  1   force =     0.00000000    0.00000000    0.00000000
     atom   35 type  1   force =     0.00000000    0.00000000    0.00000000
     atom   36 type  1   force =     0.00000000    0.00000000    0.00000000
     atom   37 type  1   force =     0.00000000    0.00000000    0.00000000
     atom   38 type  1   force =     0.00000000    0.00000000    0.00000000
     atom   39 type  1   force =     0.00000000    0.00000000    0.00000000
     atom   40 type  1   force =     0.00000000    0.00000000    0.00000000
     atom   41 type  1   force =     0.00000000    0.00000000    0.00000000
     atom   42 type  1   force =     0.00000000    0.00000000    0.00000000
     atom   43 type  1   force =     0.00000000    0.00000000    0.00000000
     atom   44 type  1   force =     0.00000000    0.00000000    0.00000000
     atom   45 type  1   force =     0.00000000    0.00000000    0.00000000
     atom   46 type  1   force =     0.00000000    0.00000000    0.00000000
     atom   47 type  1   force =     0.00000000    0.00000000    0.00000000
     atom   48 type  1   force =     0.00000000    0.00000000    0.00000000
     atom   49 type  1   force =     0.00000000    0.00000000    0.00000000
     atom   50 type  1   force =     0.00000000    0.00000000    0.00000000
     atom   51 type  1   force =     0.00000000    0.00000000    0.00000000
     atom   52 type  1   force =     0.00000000    0.00000000    0.00000000
     atom   53 type  1   force =     0.00000000    0.00000000    0.00000000
     atom   54 type  1   force =     0.00000000    0.00000000    0.00000000
     The SCF correction term to forces
     atom    1 type  1   force =     0.00000000   -0.00000000    0.00000000
     atom    2 type  1   force =    -0.00000091   -0.00000091   -0.00000091
     atom    3 type  1   force =     0.00000000    0.00000000   -0.00001493
     atom    4 type  1   force =     0.00000797    0.00000797    0.00000000
     atom    5 type  1   force =    -0.00000000   -0.00000000    0.00001493
     atom    6 type  1   force =    -0.00000091   -0.00000091    0.00000091
     atom    7 type  1   force =     0.00000000   -0.00001493    0.00000000
     atom    8 type  1   force =     0.00000797    0.00000000    0.00000797
     atom    9 type  1   force =     0.00000000   -0.00001408   -0.00001408
     atom   10 type  1   force =     0.00001279    0.00000000    0.00000000
     atom   11 type  1   force =    -0.00000000   -0.00001408    0.00001408
     atom   12 type  1   force =     0.00000797    0.00000000   -0.00000797
     atom   13 type  1   force =     0.00000000    0.00001493    0.00000000
     atom   14 type  1   force =    -0.00000091    0.00000091   -0.00000091
     atom   15 type  1   force =     0.00000000    0.00001408   -0.00001408
     atom   16 type  1   force =     0.00000797   -0.00000797   -0.00000000
     atom   17 type  1   force =     0.00000000    0.00001408    0.00001408
     atom   18 type  1   force =    -0.00000091    0.00000091    0.00000091
     atom   19 type  1   force =    -0.00001493    0.00000000    0.00000000
     atom   20 type  1   force =     0.00000000    0.00000797    0.00000797
     atom   21 type  1   force =    -0.00001408   -0.00000000   -0.00001408
     atom   22 type  1   force =    -0.00000000    0.00001279    0.00000000
     atom   23 type  1   force =    -0.00001408   -0.00000000    0.00001408
     atom   24 type  1   force =     0.00000000    0.00000797   -0.00000797
     atom   25 type  1   force =    -0.00001408   -0.00001408    0.00000000
     atom   26 type  1   force =     0.00000000    0.00000000    0.00001279
     atom   27 type  1   force =    -0.00000735   -0.00000735   -0.00000735
     atom   28 type  1   force =    -0.00000000   -0.00000000    0.00000000
     atom   29 type  1   force =    -0.00000735   -0.00000735    0.00000735
     atom   30 type  1   force =     0.00000000    0.00000000   -0.00001279
     atom   31 type  1   force =    -0.00001408    0.00001408    0.00000000
     atom   32 type  1   force =     0.00000000   -0.00000797    0.00000797
     atom   33 type  1   force =    -0.00000735    0.00000735   -0.00000735
     atom   34 type  1   force =    -0.00000000   -0.00001279    0.00000000
     atom   35 type  1   force =    -0.00000735    0.00000735    0.00000735
     atom   36 type  1   force =    -0.00000000   -0.00000797   -0.00000797
     atom   37 type  1   force =     0.00001493    0.00000000    0.00000000
     atom   38 type  1   force =     0.00000091   -0.00000091   -0.00000091
     atom   39 type  1   force =     0.00001408   -0.00000000   -0.00001408
     atom   40 type  1   force =    -0.00000797    0.00000797    0.00000000
     atom   41 type  1   force =     0.00001408    0.00000000    0.00001408
     atom   42 type  1   force =     0.00000091   -0.00000091    0.00000091
     atom   43 type  1   force =     0.00001408   -0.00001408    0.00000000
     atom   44 type  1   force =    -0.00000797    0.00000000    0.00000797
     atom   45 type  1   force =     0.00000735   -0.00000735   -0.00000735
     atom   46 type  1   force =    -0.00001279    0.00000000    0.00000000
     atom   47 type  1   force =     0.00000735   -0.00000735    0.00000735
     atom   48 type  1   force =    -0.00000797    0.00000000   -0.00000797
     atom   49 type  1   force =     0.00001408    0.00001408    0.00000000
     atom   50 type  1   force =     0.00000091    0.00000091   -0.00000091
     atom   51 type  1   force =     0.00000735    0.00000735   -0.00000735
     atom   52 type  1   force =    -0.00000797   -0.00000797    0.00000000
     atom   53 type  1   force =     0.00000735    0.00000735    0.00000735
     atom   54 type  1   force =     0.00000091    0.00000091    0.00000091

     Total force =     0.000044     Total SCF correction =     0.000100
     SCF correction compared to forces is large: reduce conv_thr to get better values


     Computing stress (Cartesian axis) and pressure


     negative rho (up, down):  0.000E+00 1.830E-03
          total   stress  (Ry/bohr**3)                   (kbar)     P=      -66.56
  -0.00045249   0.00000000   0.00000000          -66.56        0.00        0.00
   0.00000000  -0.00045249   0.00000000            0.00      -66.56        0.00
   0.00000000   0.00000000  -0.00045249            0.00        0.00      -66.56

     kinetic stress (kbar)  78591.27      0.00      0.00
                                0.00  78591.27      0.00
                                0.00      0.00  78591.27

     local   stress (kbar)  66183.46     -0.00      0.00
                               -0.00  66183.46      0.00
                                0.00      0.00  66183.46

     nonloc. stress (kbar) -61387.06      0.00      0.00
                                0.00 -61387.06      0.00
                                0.00      0.00 -61387.06

     hartree stress (kbar)  41040.24      0.00     -0.00
                                0.00  41040.24     -0.00
                               -0.00     -0.00  41040.24

     exc-cor stress (kbar)  -2498.11     -0.00      0.00
                               -0.00  -2498.11      0.00
                                0.00      0.00  -2498.11

     corecor stress (kbar) -16116.44     -0.00      0.00
                               -0.00 -16116.44     -0.00
                                0.00     -0.00 -16116.44

     ewald   stress (kbar)-105879.93      0.00      0.00
                                0.00-105879.93     -0.00
                                0.00     -0.00-105879.93

     hubbard stress (kbar)      0.00      0.00      0.00
                                0.00      0.00      0.00
                                0.00      0.00      0.00

     DFT-D   stress (kbar)      0.00      0.00      0.00
                                0.00      0.00      0.00
                                0.00      0.00      0.00

     XDM     stress (kbar)      0.00      0.00      0.00
                                0.00      0.00      0.00
                                0.00      0.00      0.00

     dft-nl  stress (kbar)      0.00      0.00      0.00
                                0.00      0.00      0.00
                                0.00      0.00      0.00

     TS-vdW  stress (kbar)      0.00      0.00      0.00
                                0.00      0.00      0.00
                                0.00      0.00      0.00

     MDB     stress (kbar)      0.00      0.00      0.00
                                0.00      0.00      0.00
                                0.00      0.00      0.00

     3D-RISM stress (kbar)      0.00      0.00      0.00
                                0.00      0.00      0.00
                                0.00      0.00      0.00


     BFGS Geometry Optimization
     Energy error            =      0.0E+00 Ry
     Gradient error          =      8.9E-06 Ry/Bohr

     bfgs converged in   1 scf cycles and   0 bfgs steps
     (criteria: energy <  1.0E-04 Ry, force <  1.0E-03 Ry/Bohr)

     End of BFGS Geometry Optimization

     Final energy             =  -13736.1607137132 Ry
Begin final coordinates

ATOMIC_POSITIONS (angstrom)
Fe               0.0000000000        0.0000000000        0.0000000000
Fe               1.4340500000        1.4340500000        1.4340500000
Fe               0.0000000000        0.0000000000        2.8681000000
Fe               1.4340500000        1.4340500000        4.3021500000
Fe               0.0000000000        0.0000000000        5.7362000000
Fe               1.4340500000        1.4340500000        7.1702500000
Fe               0.0000000000        2.8681000000        0.0000000000
Fe               1.4340500000        4.3021500000        1.4340500000
Fe               0.0000000000        2.8681000000        2.8681000000
Fe               1.4340500000        4.3021500000        4.3021500000
Fe               0.0000000000        2.8681000000        5.7362000000
Fe               1.4340500000        4.3021500000        7.1702500000
Fe               0.0000000000        5.7362000000        0.0000000000
Fe               1.4340500000        7.1702500000        1.4340500000
Fe               0.0000000000        5.7362000000        2.8681000000
Fe               1.4340500000        7.1702500000        4.3021500000
Fe               0.0000000000        5.7362000000        5.7362000000
Fe               1.4340500000        7.1702500000        7.1702500000
Fe               2.8681000000        0.0000000000        0.0000000000
Fe               4.3021500000        1.4340500000        1.4340500000
Fe               2.8681000000        0.0000000000        2.8681000000
Fe               4.3021500000        1.4340500000        4.3021500000
Fe               2.8681000000        0.0000000000        5.7362000000
Fe               4.3021500000        1.4340500000        7.1702500000
Fe               2.8681000000        2.8681000000        0.0000000000
Fe               4.3021500000        4.3021500000        1.4340500000
Fe               2.8681000000        2.8681000000        2.8681000000
Fe               4.3021500000        4.3021500000        4.3021500000
Fe               2.8681000000        2.8681000000        5.7362000000
Fe               4.3021500000        4.3021500000        7.1702500000
Fe               2.8681000000        5.7362000000        0.0000000000
Fe               4.3021500000        7.1702500000        1.4340500000
Fe               2.8681000000        5.7362000000        2.8681000000
Fe               4.3021500000        7.1702500000        4.3021500000
Fe               2.8681000000        5.7362000000        5.7362000000
Fe               4.3021500000        7.1702500000        7.1702500000
Fe               5.7362000000        0.0000000000        0.0000000000
Fe               7.1702500000        1.4340500000        1.4340500000
Fe               5.7362000000        0.0000000000        2.8681000000
Fe               7.1702500000        1.4340500000        4.3021500000
Fe               5.7362000000        0.0000000000        5.7362000000
Fe               7.1702500000        1.4340500000        7.1702500000
Fe               5.7362000000        2.8681000000        0.0000000000
Fe               7.1702500000        4.3021500000        1.4340500000
Fe               5.7362000000        2.8681000000        2.8681000000
Fe               7.1702500000        4.3021500000        4.3021500000
Fe               5.7362000000        2.8681000000        5.7362000000
Fe               7.1702500000        4.3021500000        7.1702500000
Fe               5.7362000000        5.7362000000        0.0000000000
Fe               7.1702500000        7.1702500000        1.4340500000
Fe               5.7362000000        5.7362000000        2.8681000000
Fe               7.1702500000        7.1702500000        4.3021500000
Fe               5.7362000000        5.7362000000        5.7362000000
Fe               7.1702500000        7.1702500000        7.1702500000
End final coordinates


     Message from routine punch:
     Nothing written, as per user request (disk_io='none')

     init_run     :     87.97s CPU     92.05s WALL (       1 calls)
     electrons    :   7468.63s CPU   7857.91s WALL (       1 calls)
     forces       :     35.54s CPU     37.14s WALL (       1 calls)
     stress       :    806.47s CPU    827.99s WALL (       1 calls)

     Called by init_run:
     wfcinit      :     83.42s CPU     86.86s WALL (       1 calls)
     wfcinit:atom :      0.29s CPU      0.58s WALL (      14 calls)
     wfcinit:wfcr :     80.55s CPU     83.48s WALL (      14 calls)
     potinit      :      1.61s CPU      1.89s WALL (       1 calls)
     hinit0       :      1.40s CPU      1.48s WALL (       1 calls)

     Called by electrons:
     c_bands      :   6465.26s CPU   6788.71s WALL (      34 calls)
     sum_band     :    952.34s CPU   1008.58s WALL (      34 calls)
     v_of_rho     :     35.28s CPU     41.54s WALL (      35 calls)
     v_h          :      1.02s CPU      1.21s WALL (      35 calls)
     v_xc         :     35.92s CPU     42.21s WALL (      37 calls)
     newd         :     11.26s CPU     13.37s WALL (      35 calls)
     mix_rho      :      1.44s CPU      1.90s WALL (      34 calls)

     Called by c_bands:
     init_us_2    :     71.46s CPU     72.93s WALL (     994 calls)
     cegterg      :   5913.90s CPU   6159.84s WALL (     476 calls)

     Called by sum_band:
     sum_band:wei :      0.38s CPU      0.45s WALL (      34 calls)
     sum_band:loo :    881.83s CPU    925.21s WALL (      34 calls)
     sum_band:buf :      9.87s CPU     10.44s WALL (     476 calls)
     sum_band:ini :     22.01s CPU     22.29s WALL (     476 calls)
     sum_band:cal :    249.42s CPU    261.33s WALL (     476 calls)
     sum_band:bec :      2.93s CPU      2.97s WALL (     476 calls)
     addusdens    :      9.40s CPU     11.57s WALL (      34 calls)
                                        0.00s GPU  (      34 calls)
     addusd:skk   :      0.38s CPU      0.49s WALL (      34 calls)
                                        0.00s GPU  (      34 calls)

     Called by *egterg:
     cdiaghg      :    281.10s CPU    313.19s WALL (    1728 calls)
     cegterg:over :    577.28s CPU    597.80s WALL (    1252 calls)
     cegterg:upda :    364.98s CPU    381.23s WALL (    1252 calls)
     cegterg:last :    796.48s CPU    821.76s WALL (     863 calls)
     cdiaghg:chol :     22.91s CPU     26.45s WALL (    1728 calls)
     cdiaghg:inve :     24.67s CPU     29.12s WALL (    1728 calls)
     cdiaghg:para :     60.41s CPU     71.32s WALL (    3456 calls)
     h_psi        :   3199.62s CPU   3316.23s WALL (    1742 calls)
     s_psi        :    517.36s CPU    524.25s WALL (    1742 calls)
     g_psi        :      7.38s CPU      7.47s WALL (    1252 calls)

     Called by h_psi:
     h_psi:calbec :    567.74s CPU    590.11s WALL (    1742 calls)
     vloc_psi     :   2093.61s CPU   2164.93s WALL (    1742 calls)
     add_vuspsi   :    518.05s CPU    524.15s WALL (    1742 calls)

     General routines
     calbec       :    905.99s CPU    950.68s WALL (    2288 calls)
     fft          :     19.70s CPU     24.45s WALL (     913 calls)
     ffts         :      1.25s CPU      1.53s WALL (     138 calls)
     fftw         :   1400.04s CPU   1480.36s WALL ( 1362268 calls)
     interpolate  :      2.30s CPU      2.73s WALL (      70 calls)

     Parallel routines

     PWSCF        :   8398.98s CPU   8816.67s WALL


   This run was terminated on:  17: 1: 7   3Jun2025            

=------------------------------------------------------------------------------=
   JOB DONE.
=------------------------------------------------------------------------------=
