
     Program PWSCF v.7.3.1 starts on 24May2025 at 11:18:54 

     This program is part of the open-source Quantum ESPRESSO suite
     for quantum simulation of materials; please cite
         "P. Giannozzi et al., J. Phys.:Condens. Matter 21 395502 (2009);
         "P. Giannozzi et al., J. Phys.:Condens. Matter 29 465901 (2017);
         "P. Giannozzi et al., J. Chem. Phys. 152 154105 (2020);
          URL http://www.quantum-espresso.org", 
     in publications or presentations arising from this work. More details at
     http://www.quantum-espresso.org/quote

     Parallel version (MPI & OpenMP), running on      32 processor cores
     Number of MPI processes:                32
     Threads/MPI process:                     1

     MPI processes distributed on     1 nodes
     442377 MiB available memory on the printing compute node when the environment starts

     Waiting for input...
     Reading input from standard input

     Current dimensions of program PWSCF are:
     Max number of different atomic species (ntypx) = 10
     Max number of k-points (npk) =  40000
     Max angular momentum in pseudopotentials (lmaxx) =  4
     file Fe.pbe-spn-kjpaw_psl.1.0.0.UPF: wavefunction(s)  3P 3D renormalized
     Found identity + (  0.2500  0.2500  0.2500) symmetry
     This is a supercell, fractional translations are disabled
     Message from routine setup:
     using ibrav=0 with symmetry is DISCOURAGED, use correct ibrav instead

     K-points division:     npool     =       4
     R & G space division:  proc/nbgrp/npool/nimage =       8
     Subspace diagonalization in iterative solution of the eigenvalue problem:
     one sub-group per band group will be used
     ELPA distributed-memory algorithm (size of sub-group:  2*  2 procs)


     Parallelization info
     --------------------
     sticks:   dense  smooth     PW     G-vecs:    dense   smooth      PW
     Min        1262     420    117                95454    18370    2670
     Max        1263     421    119                95459    18371    2671
     Sum       10097    3365    941               763649   146965   21367

     Using Slab Decomposition



     bravais-lattice index     =            0
     lattice parameter (alat)  =      10.8398  a.u.
     unit-cell volume          =    1273.7068 (a.u.)^3
     number of atoms/cell      =           16
     number of atomic types    =            1
     number of electrons       =       256.00
     number of Kohn-Sham states=          154
     kinetic-energy cutoff     =      90.0000  Ry
     charge density cutoff     =    1080.0000  Ry
     scf convergence threshold =      1.0E-08
     mixing beta               =       0.2000
     number of iterations used =            8  plain     mixing
     Exchange-correlation= SLA  PW   PBX  PBC
                           (   1   4   3   4   0   0   0)

     celldm(1)=  10.839847  celldm(2)=   0.000000  celldm(3)=   0.000000
     celldm(4)=   0.000000  celldm(5)=   0.000000  celldm(6)=   0.000000

     crystal axes: (cart. coord. in units of alat)
               a(1) = (   1.000000   0.000000   0.000000 )  
               a(2) = (   0.000000   1.000000   0.000000 )  
               a(3) = (   0.000000   0.000000   1.000000 )  

     reciprocal axes: (cart. coord. in units 2 pi/alat)
               b(1) = (  1.000000  0.000000  0.000000 )  
               b(2) = (  0.000000  1.000000  0.000000 )  
               b(3) = (  0.000000  0.000000  1.000000 )  


     PseudoPot. # 1 for Fe read from file:
     ./pseudo/Fe.pbe-spn-kjpaw_psl.1.0.0.UPF
     MD5 check sum: fc81f059e5c5069939230b1155715ae8
     Pseudo is Projector augmented-wave + core cor, Zval = 16.0
     Generated using &quot;atomic&quot; code by A. Dal Corso  v.6.3
     Shape of augmentation charge: PSQ
     Using radial grid of 1191 points,  6 beta functions with: 
                l(1) =   0
                l(2) =   0
                l(3) =   1
                l(4) =   1
                l(5) =   2
                l(6) =   2
     Q(r) pseudized with 0 coefficients 


     atomic species   valence    mass     pseudopotential
     Fe               16.00    55.84500     Fe( 1.00)

     Starting magnetic structure 
     atomic species   magnetization
     Fe              0.400

     48 Sym. Ops., with inversion, found


                                    s                        frac. trans.

      isym =  1     identity                                     

 cryst.   s( 1) = (     1          0          0      )
                  (     0          1          0      )
                  (     0          0          1      )

 cart.    s( 1) = (  1.0000000  0.0000000  0.0000000 )
                  (  0.0000000  1.0000000  0.0000000 )
                  (  0.0000000  0.0000000  1.0000000 )


      isym =  2     180 deg rotation - cart. axis [0,0,1]        

 cryst.   s( 2) = (    -1          0          0      )
                  (     0         -1          0      )
                  (     0          0          1      )

 cart.    s( 2) = ( -1.0000000  0.0000000  0.0000000 )
                  (  0.0000000 -1.0000000  0.0000000 )
                  (  0.0000000  0.0000000  1.0000000 )


      isym =  3     180 deg rotation - cart. axis [0,1,0]        

 cryst.   s( 3) = (    -1          0          0      )
                  (     0          1          0      )
                  (     0          0         -1      )

 cart.    s( 3) = ( -1.0000000  0.0000000  0.0000000 )
                  (  0.0000000  1.0000000  0.0000000 )
                  (  0.0000000  0.0000000 -1.0000000 )


      isym =  4     180 deg rotation - cart. axis [1,0,0]        

 cryst.   s( 4) = (     1          0          0      )
                  (     0         -1          0      )
                  (     0          0         -1      )

 cart.    s( 4) = (  1.0000000  0.0000000  0.0000000 )
                  (  0.0000000 -1.0000000  0.0000000 )
                  (  0.0000000  0.0000000 -1.0000000 )


      isym =  5     180 deg rotation - cart. axis [1,1,0]        

 cryst.   s( 5) = (     0          1          0      )
                  (     1          0          0      )
                  (     0          0         -1      )

 cart.    s( 5) = (  0.0000000  1.0000000  0.0000000 )
                  (  1.0000000  0.0000000  0.0000000 )
                  (  0.0000000  0.0000000 -1.0000000 )


      isym =  6     180 deg rotation - cart. axis [1,-1,0]       

 cryst.   s( 6) = (     0         -1          0      )
                  (    -1          0          0      )
                  (     0          0         -1      )

 cart.    s( 6) = (  0.0000000 -1.0000000  0.0000000 )
                  ( -1.0000000  0.0000000  0.0000000 )
                  (  0.0000000  0.0000000 -1.0000000 )


      isym =  7      90 deg rotation - cart. axis [0,0,-1]       

 cryst.   s( 7) = (     0         -1          0      )
                  (     1          0          0      )
                  (     0          0          1      )

 cart.    s( 7) = (  0.0000000  1.0000000  0.0000000 )
                  ( -1.0000000  0.0000000  0.0000000 )
                  (  0.0000000  0.0000000  1.0000000 )


      isym =  8      90 deg rotation - cart. axis [0,0,1]        

 cryst.   s( 8) = (     0          1          0      )
                  (    -1          0          0      )
                  (     0          0          1      )

 cart.    s( 8) = (  0.0000000 -1.0000000  0.0000000 )
                  (  1.0000000  0.0000000  0.0000000 )
                  (  0.0000000  0.0000000  1.0000000 )


      isym =  9     180 deg rotation - cart. axis [1,0,1]        

 cryst.   s( 9) = (     0          0          1      )
                  (     0         -1          0      )
                  (     1          0          0      )

 cart.    s( 9) = (  0.0000000  0.0000000  1.0000000 )
                  (  0.0000000 -1.0000000  0.0000000 )
                  (  1.0000000  0.0000000  0.0000000 )


      isym = 10     180 deg rotation - cart. axis [-1,0,1]       

 cryst.   s(10) = (     0          0         -1      )
                  (     0         -1          0      )
                  (    -1          0          0      )

 cart.    s(10) = (  0.0000000  0.0000000 -1.0000000 )
                  (  0.0000000 -1.0000000  0.0000000 )
                  ( -1.0000000  0.0000000  0.0000000 )


      isym = 11      90 deg rotation - cart. axis [0,1,0]        

 cryst.   s(11) = (     0          0         -1      )
                  (     0          1          0      )
                  (     1          0          0      )

 cart.    s(11) = (  0.0000000  0.0000000  1.0000000 )
                  (  0.0000000  1.0000000  0.0000000 )
                  ( -1.0000000  0.0000000  0.0000000 )


      isym = 12      90 deg rotation - cart. axis [0,-1,0]       

 cryst.   s(12) = (     0          0          1      )
                  (     0          1          0      )
                  (    -1          0          0      )

 cart.    s(12) = (  0.0000000  0.0000000 -1.0000000 )
                  (  0.0000000  1.0000000  0.0000000 )
                  (  1.0000000  0.0000000  0.0000000 )


      isym = 13     180 deg rotation - cart. axis [0,1,1]        

 cryst.   s(13) = (    -1          0          0      )
                  (     0          0          1      )
                  (     0          1          0      )

 cart.    s(13) = ( -1.0000000  0.0000000  0.0000000 )
                  (  0.0000000  0.0000000  1.0000000 )
                  (  0.0000000  1.0000000  0.0000000 )


      isym = 14     180 deg rotation - cart. axis [0,1,-1]       

 cryst.   s(14) = (    -1          0          0      )
                  (     0          0         -1      )
                  (     0         -1          0      )

 cart.    s(14) = ( -1.0000000  0.0000000  0.0000000 )
                  (  0.0000000  0.0000000 -1.0000000 )
                  (  0.0000000 -1.0000000  0.0000000 )


      isym = 15      90 deg rotation - cart. axis [-1,0,0]       

 cryst.   s(15) = (     1          0          0      )
                  (     0          0         -1      )
                  (     0          1          0      )

 cart.    s(15) = (  1.0000000  0.0000000  0.0000000 )
                  (  0.0000000  0.0000000  1.0000000 )
                  (  0.0000000 -1.0000000  0.0000000 )


      isym = 16      90 deg rotation - cart. axis [1,0,0]        

 cryst.   s(16) = (     1          0          0      )
                  (     0          0          1      )
                  (     0         -1          0      )

 cart.    s(16) = (  1.0000000  0.0000000  0.0000000 )
                  (  0.0000000  0.0000000 -1.0000000 )
                  (  0.0000000  1.0000000  0.0000000 )


      isym = 17     120 deg rotation - cart. axis [-1,-1,-1]     

 cryst.   s(17) = (     0          0          1      )
                  (     1          0          0      )
                  (     0          1          0      )

 cart.    s(17) = (  0.0000000  1.0000000  0.0000000 )
                  (  0.0000000  0.0000000  1.0000000 )
                  (  1.0000000  0.0000000  0.0000000 )


      isym = 18     120 deg rotation - cart. axis [-1,1,1]       

 cryst.   s(18) = (     0          0         -1      )
                  (    -1          0          0      )
                  (     0          1          0      )

 cart.    s(18) = (  0.0000000 -1.0000000  0.0000000 )
                  (  0.0000000  0.0000000  1.0000000 )
                  ( -1.0000000  0.0000000  0.0000000 )


      isym = 19     120 deg rotation - cart. axis [1,1,-1]       

 cryst.   s(19) = (     0          0         -1      )
                  (     1          0          0      )
                  (     0         -1          0      )

 cart.    s(19) = (  0.0000000  1.0000000  0.0000000 )
                  (  0.0000000  0.0000000 -1.0000000 )
                  ( -1.0000000  0.0000000  0.0000000 )


      isym = 20     120 deg rotation - cart. axis [1,-1,1]       

 cryst.   s(20) = (     0          0          1      )
                  (    -1          0          0      )
                  (     0         -1          0      )

 cart.    s(20) = (  0.0000000 -1.0000000  0.0000000 )
                  (  0.0000000  0.0000000 -1.0000000 )
                  (  1.0000000  0.0000000  0.0000000 )


      isym = 21     120 deg rotation - cart. axis [1,1,1]        

 cryst.   s(21) = (     0          1          0      )
                  (     0          0          1      )
                  (     1          0          0      )

 cart.    s(21) = (  0.0000000  0.0000000  1.0000000 )
                  (  1.0000000  0.0000000  0.0000000 )
                  (  0.0000000  1.0000000  0.0000000 )


      isym = 22     120 deg rotation - cart. axis [-1,1,-1]      

 cryst.   s(22) = (     0         -1          0      )
                  (     0          0         -1      )
                  (     1          0          0      )

 cart.    s(22) = (  0.0000000  0.0000000  1.0000000 )
                  ( -1.0000000  0.0000000  0.0000000 )
                  (  0.0000000 -1.0000000  0.0000000 )


      isym = 23     120 deg rotation - cart. axis [1,-1,-1]      

 cryst.   s(23) = (     0         -1          0      )
                  (     0          0          1      )
                  (    -1          0          0      )

 cart.    s(23) = (  0.0000000  0.0000000 -1.0000000 )
                  ( -1.0000000  0.0000000  0.0000000 )
                  (  0.0000000  1.0000000  0.0000000 )


      isym = 24     120 deg rotation - cart. axis [-1,-1,1]      

 cryst.   s(24) = (     0          1          0      )
                  (     0          0         -1      )
                  (    -1          0          0      )

 cart.    s(24) = (  0.0000000  0.0000000 -1.0000000 )
                  (  1.0000000  0.0000000  0.0000000 )
                  (  0.0000000 -1.0000000  0.0000000 )


      isym = 25     inversion                                    

 cryst.   s(25) = (    -1          0          0      )
                  (     0         -1          0      )
                  (     0          0         -1      )

 cart.    s(25) = ( -1.0000000  0.0000000  0.0000000 )
                  (  0.0000000 -1.0000000  0.0000000 )
                  (  0.0000000  0.0000000 -1.0000000 )


      isym = 26     inv. 180 deg rotation - cart. axis [0,0,1]   

 cryst.   s(26) = (     1          0          0      )
                  (     0          1          0      )
                  (     0          0         -1      )

 cart.    s(26) = (  1.0000000  0.0000000  0.0000000 )
                  (  0.0000000  1.0000000  0.0000000 )
                  (  0.0000000  0.0000000 -1.0000000 )


      isym = 27     inv. 180 deg rotation - cart. axis [0,1,0]   

 cryst.   s(27) = (     1          0          0      )
                  (     0         -1          0      )
                  (     0          0          1      )

 cart.    s(27) = (  1.0000000  0.0000000  0.0000000 )
                  (  0.0000000 -1.0000000  0.0000000 )
                  (  0.0000000  0.0000000  1.0000000 )


      isym = 28     inv. 180 deg rotation - cart. axis [1,0,0]   

 cryst.   s(28) = (    -1          0          0      )
                  (     0          1          0      )
                  (     0          0          1      )

 cart.    s(28) = ( -1.0000000  0.0000000  0.0000000 )
                  (  0.0000000  1.0000000  0.0000000 )
                  (  0.0000000  0.0000000  1.0000000 )


      isym = 29     inv. 180 deg rotation - cart. axis [1,1,0]   

 cryst.   s(29) = (     0         -1          0      )
                  (    -1          0          0      )
                  (     0          0          1      )

 cart.    s(29) = (  0.0000000 -1.0000000  0.0000000 )
                  ( -1.0000000  0.0000000  0.0000000 )
                  (  0.0000000  0.0000000  1.0000000 )


      isym = 30     inv. 180 deg rotation - cart. axis [1,-1,0]  

 cryst.   s(30) = (     0          1          0      )
                  (     1          0          0      )
                  (     0          0          1      )

 cart.    s(30) = (  0.0000000  1.0000000  0.0000000 )
                  (  1.0000000  0.0000000  0.0000000 )
                  (  0.0000000  0.0000000  1.0000000 )


      isym = 31     inv.  90 deg rotation - cart. axis [0,0,-1]  

 cryst.   s(31) = (     0          1          0      )
                  (    -1          0          0      )
                  (     0          0         -1      )

 cart.    s(31) = (  0.0000000 -1.0000000  0.0000000 )
                  (  1.0000000  0.0000000  0.0000000 )
                  (  0.0000000  0.0000000 -1.0000000 )


      isym = 32     inv.  90 deg rotation - cart. axis [0,0,1]   

 cryst.   s(32) = (     0         -1          0      )
                  (     1          0          0      )
                  (     0          0         -1      )

 cart.    s(32) = (  0.0000000  1.0000000  0.0000000 )
                  ( -1.0000000  0.0000000  0.0000000 )
                  (  0.0000000  0.0000000 -1.0000000 )


      isym = 33     inv. 180 deg rotation - cart. axis [1,0,1]   

 cryst.   s(33) = (     0          0         -1      )
                  (     0          1          0      )
                  (    -1          0          0      )

 cart.    s(33) = (  0.0000000  0.0000000 -1.0000000 )
                  (  0.0000000  1.0000000  0.0000000 )
                  ( -1.0000000  0.0000000  0.0000000 )


      isym = 34     inv. 180 deg rotation - cart. axis [-1,0,1]  

 cryst.   s(34) = (     0          0          1      )
                  (     0          1          0      )
                  (     1          0          0      )

 cart.    s(34) = (  0.0000000  0.0000000  1.0000000 )
                  (  0.0000000  1.0000000  0.0000000 )
                  (  1.0000000  0.0000000  0.0000000 )


      isym = 35     inv.  90 deg rotation - cart. axis [0,1,0]   

 cryst.   s(35) = (     0          0          1      )
                  (     0         -1          0      )
                  (    -1          0          0      )

 cart.    s(35) = (  0.0000000  0.0000000 -1.0000000 )
                  (  0.0000000 -1.0000000  0.0000000 )
                  (  1.0000000  0.0000000  0.0000000 )


      isym = 36     inv.  90 deg rotation - cart. axis [0,-1,0]  

 cryst.   s(36) = (     0          0         -1      )
                  (     0         -1          0      )
                  (     1          0          0      )

 cart.    s(36) = (  0.0000000  0.0000000  1.0000000 )
                  (  0.0000000 -1.0000000  0.0000000 )
                  ( -1.0000000  0.0000000  0.0000000 )


      isym = 37     inv. 180 deg rotation - cart. axis [0,1,1]   

 cryst.   s(37) = (     1          0          0      )
                  (     0          0         -1      )
                  (     0         -1          0      )

 cart.    s(37) = (  1.0000000  0.0000000  0.0000000 )
                  (  0.0000000  0.0000000 -1.0000000 )
                  (  0.0000000 -1.0000000  0.0000000 )


      isym = 38     inv. 180 deg rotation - cart. axis [0,1,-1]  

 cryst.   s(38) = (     1          0          0      )
                  (     0          0          1      )
                  (     0          1          0      )

 cart.    s(38) = (  1.0000000  0.0000000  0.0000000 )
                  (  0.0000000  0.0000000  1.0000000 )
                  (  0.0000000  1.0000000  0.0000000 )


      isym = 39     inv.  90 deg rotation - cart. axis [-1,0,0]  

 cryst.   s(39) = (    -1          0          0      )
                  (     0          0          1      )
                  (     0         -1          0      )

 cart.    s(39) = ( -1.0000000  0.0000000  0.0000000 )
                  (  0.0000000  0.0000000 -1.0000000 )
                  (  0.0000000  1.0000000  0.0000000 )


      isym = 40     inv.  90 deg rotation - cart. axis [1,0,0]   

 cryst.   s(40) = (    -1          0          0      )
                  (     0          0         -1      )
                  (     0          1          0      )

 cart.    s(40) = ( -1.0000000  0.0000000  0.0000000 )
                  (  0.0000000  0.0000000  1.0000000 )
                  (  0.0000000 -1.0000000  0.0000000 )


      isym = 41     inv. 120 deg rotation - cart. axis [-1,-1,-1]

 cryst.   s(41) = (     0          0         -1      )
                  (    -1          0          0      )
                  (     0         -1          0      )

 cart.    s(41) = (  0.0000000 -1.0000000  0.0000000 )
                  (  0.0000000  0.0000000 -1.0000000 )
                  ( -1.0000000  0.0000000  0.0000000 )


      isym = 42     inv. 120 deg rotation - cart. axis [-1,1,1]  

 cryst.   s(42) = (     0          0          1      )
                  (     1          0          0      )
                  (     0         -1          0      )

 cart.    s(42) = (  0.0000000  1.0000000  0.0000000 )
                  (  0.0000000  0.0000000 -1.0000000 )
                  (  1.0000000  0.0000000  0.0000000 )


      isym = 43     inv. 120 deg rotation - cart. axis [1,1,-1]  

 cryst.   s(43) = (     0          0          1      )
                  (    -1          0          0      )
                  (     0          1          0      )

 cart.    s(43) = (  0.0000000 -1.0000000  0.0000000 )
                  (  0.0000000  0.0000000  1.0000000 )
                  (  1.0000000  0.0000000  0.0000000 )


      isym = 44     inv. 120 deg rotation - cart. axis [1,-1,1]  

 cryst.   s(44) = (     0          0         -1      )
                  (     1          0          0      )
                  (     0          1          0      )

 cart.    s(44) = (  0.0000000  1.0000000  0.0000000 )
                  (  0.0000000  0.0000000  1.0000000 )
                  ( -1.0000000  0.0000000  0.0000000 )


      isym = 45     inv. 120 deg rotation - cart. axis [1,1,1]   

 cryst.   s(45) = (     0         -1          0      )
                  (     0          0         -1      )
                  (    -1          0          0      )

 cart.    s(45) = (  0.0000000  0.0000000 -1.0000000 )
                  ( -1.0000000  0.0000000  0.0000000 )
                  (  0.0000000 -1.0000000  0.0000000 )


      isym = 46     inv. 120 deg rotation - cart. axis [-1,1,-1] 

 cryst.   s(46) = (     0          1          0      )
                  (     0          0          1      )
                  (    -1          0          0      )

 cart.    s(46) = (  0.0000000  0.0000000 -1.0000000 )
                  (  1.0000000  0.0000000  0.0000000 )
                  (  0.0000000  1.0000000  0.0000000 )


      isym = 47     inv. 120 deg rotation - cart. axis [1,-1,-1] 

 cryst.   s(47) = (     0          1          0      )
                  (     0          0         -1      )
                  (     1          0          0      )

 cart.    s(47) = (  0.0000000  0.0000000  1.0000000 )
                  (  1.0000000  0.0000000  0.0000000 )
                  (  0.0000000 -1.0000000  0.0000000 )


      isym = 48     inv. 120 deg rotation - cart. axis [-1,-1,1] 

 cryst.   s(48) = (     0         -1          0      )
                  (     0          0          1      )
                  (     1          0          0      )

 cart.    s(48) = (  0.0000000  0.0000000  1.0000000 )
                  ( -1.0000000  0.0000000  0.0000000 )
                  (  0.0000000  1.0000000  0.0000000 )


   Cartesian axes

     site n.     atom                  positions (alat units)
         1        Fe     tau(   1) = (   0.0000000   0.0000000   0.0000000  )
         2        Fe     tau(   2) = (   0.2500000   0.2500000   0.2500000  )
         3        Fe     tau(   3) = (   0.0000000   0.0000000   0.5000000  )
         4        Fe     tau(   4) = (   0.2500000   0.2500000   0.7500000  )
         5        Fe     tau(   5) = (   0.0000000   0.5000000   0.0000000  )
         6        Fe     tau(   6) = (   0.2500000   0.7500000   0.2500000  )
         7        Fe     tau(   7) = (   0.0000000   0.5000000   0.5000000  )
         8        Fe     tau(   8) = (   0.2500000   0.7500000   0.7500000  )
         9        Fe     tau(   9) = (   0.5000000   0.0000000   0.0000000  )
        10        Fe     tau(  10) = (   0.7500000   0.2500000   0.2500000  )
        11        Fe     tau(  11) = (   0.5000000   0.0000000   0.5000000  )
        12        Fe     tau(  12) = (   0.7500000   0.2500000   0.7500000  )
        13        Fe     tau(  13) = (   0.5000000   0.5000000   0.0000000  )
        14        Fe     tau(  14) = (   0.7500000   0.7500000   0.2500000  )
        15        Fe     tau(  15) = (   0.5000000   0.5000000   0.5000000  )
        16        Fe     tau(  16) = (   0.7500000   0.7500000   0.7500000  )

   Crystallographic axes

     site n.     atom                  positions (cryst. coord.)
         1        Fe     tau(   1) = (  0.0000000  0.0000000  0.0000000  )
         2        Fe     tau(   2) = (  0.2500000  0.2500000  0.2500000  )
         3        Fe     tau(   3) = (  0.0000000  0.0000000  0.5000000  )
         4        Fe     tau(   4) = (  0.2500000  0.2500000  0.7500000  )
         5        Fe     tau(   5) = (  0.0000000  0.5000000  0.0000000  )
         6        Fe     tau(   6) = (  0.2500000  0.7500000  0.2500000  )
         7        Fe     tau(   7) = (  0.0000000  0.5000000  0.5000000  )
         8        Fe     tau(   8) = (  0.2500000  0.7500000  0.7500000  )
         9        Fe     tau(   9) = (  0.5000000  0.0000000  0.0000000  )
        10        Fe     tau(  10) = (  0.7500000  0.2500000  0.2500000  )
        11        Fe     tau(  11) = (  0.5000000  0.0000000  0.5000000  )
        12        Fe     tau(  12) = (  0.7500000  0.2500000  0.7500000  )
        13        Fe     tau(  13) = (  0.5000000  0.5000000  0.0000000  )
        14        Fe     tau(  14) = (  0.7500000  0.7500000  0.2500000  )
        15        Fe     tau(  15) = (  0.5000000  0.5000000  0.5000000  )
        16        Fe     tau(  16) = (  0.7500000  0.7500000  0.7500000  )

     number of k points=    84  Marzari-Vanderbilt smearing, width (Ry)=  0.0100
                       cart. coord. in units 2pi/alat
        k(    1) = (   0.0000000   0.0000000   0.0000000), wk =   0.0005787
        k(    2) = (   0.0000000   0.0000000   0.0833333), wk =   0.0034722
        k(    3) = (   0.0000000   0.0000000   0.1666667), wk =   0.0034722
        k(    4) = (   0.0000000   0.0000000   0.2500000), wk =   0.0034722
        k(    5) = (   0.0000000   0.0000000   0.3333333), wk =   0.0034722
        k(    6) = (   0.0000000   0.0000000   0.4166667), wk =   0.0034722
        k(    7) = (   0.0000000   0.0000000  -0.5000000), wk =   0.0017361
        k(    8) = (   0.0000000   0.0833333   0.0833333), wk =   0.0069444
        k(    9) = (   0.0000000   0.0833333   0.1666667), wk =   0.0138889
        k(   10) = (   0.0000000   0.0833333   0.2500000), wk =   0.0138889
        k(   11) = (   0.0000000   0.0833333   0.3333333), wk =   0.0138889
        k(   12) = (   0.0000000   0.0833333   0.4166667), wk =   0.0138889
        k(   13) = (   0.0000000   0.0833333  -0.5000000), wk =   0.0069444
        k(   14) = (   0.0000000   0.1666667   0.1666667), wk =   0.0069444
        k(   15) = (   0.0000000   0.1666667   0.2500000), wk =   0.0138889
        k(   16) = (   0.0000000   0.1666667   0.3333333), wk =   0.0138889
        k(   17) = (   0.0000000   0.1666667   0.4166667), wk =   0.0138889
        k(   18) = (   0.0000000   0.1666667  -0.5000000), wk =   0.0069444
        k(   19) = (   0.0000000   0.2500000   0.2500000), wk =   0.0069444
        k(   20) = (   0.0000000   0.2500000   0.3333333), wk =   0.0138889
        k(   21) = (   0.0000000   0.2500000   0.4166667), wk =   0.0138889
        k(   22) = (   0.0000000   0.2500000  -0.5000000), wk =   0.0069444
        k(   23) = (   0.0000000   0.3333333   0.3333333), wk =   0.0069444
        k(   24) = (   0.0000000   0.3333333   0.4166667), wk =   0.0138889
        k(   25) = (   0.0000000   0.3333333  -0.5000000), wk =   0.0069444
        k(   26) = (   0.0000000   0.4166667   0.4166667), wk =   0.0069444
        k(   27) = (   0.0000000   0.4166667  -0.5000000), wk =   0.0069444
        k(   28) = (   0.0000000  -0.5000000  -0.5000000), wk =   0.0017361
        k(   29) = (   0.0833333   0.0833333   0.0833333), wk =   0.0046296
        k(   30) = (   0.0833333   0.0833333   0.1666667), wk =   0.0138889
        k(   31) = (   0.0833333   0.0833333   0.2500000), wk =   0.0138889
        k(   32) = (   0.0833333   0.0833333   0.3333333), wk =   0.0138889
        k(   33) = (   0.0833333   0.0833333   0.4166667), wk =   0.0138889
        k(   34) = (   0.0833333   0.0833333  -0.5000000), wk =   0.0069444
        k(   35) = (   0.0833333   0.1666667   0.1666667), wk =   0.0138889
        k(   36) = (   0.0833333   0.1666667   0.2500000), wk =   0.0277778
        k(   37) = (   0.0833333   0.1666667   0.3333333), wk =   0.0277778
        k(   38) = (   0.0833333   0.1666667   0.4166667), wk =   0.0277778
        k(   39) = (   0.0833333   0.1666667  -0.5000000), wk =   0.0138889
        k(   40) = (   0.0833333   0.2500000   0.2500000), wk =   0.0138889
        k(   41) = (   0.0833333   0.2500000   0.3333333), wk =   0.0277778
        k(   42) = (   0.0833333   0.2500000   0.4166667), wk =   0.0277778
        k(   43) = (   0.0833333   0.2500000  -0.5000000), wk =   0.0138889
        k(   44) = (   0.0833333   0.3333333   0.3333333), wk =   0.0138889
        k(   45) = (   0.0833333   0.3333333   0.4166667), wk =   0.0277778
        k(   46) = (   0.0833333   0.3333333  -0.5000000), wk =   0.0138889
        k(   47) = (   0.0833333   0.4166667   0.4166667), wk =   0.0138889
        k(   48) = (   0.0833333   0.4166667  -0.5000000), wk =   0.0138889
        k(   49) = (   0.0833333  -0.5000000  -0.5000000), wk =   0.0034722
        k(   50) = (   0.1666667   0.1666667   0.1666667), wk =   0.0046296
        k(   51) = (   0.1666667   0.1666667   0.2500000), wk =   0.0138889
        k(   52) = (   0.1666667   0.1666667   0.3333333), wk =   0.0138889
        k(   53) = (   0.1666667   0.1666667   0.4166667), wk =   0.0138889
        k(   54) = (   0.1666667   0.1666667  -0.5000000), wk =   0.0069444
        k(   55) = (   0.1666667   0.2500000   0.2500000), wk =   0.0138889
        k(   56) = (   0.1666667   0.2500000   0.3333333), wk =   0.0277778
        k(   57) = (   0.1666667   0.2500000   0.4166667), wk =   0.0277778
        k(   58) = (   0.1666667   0.2500000  -0.5000000), wk =   0.0138889
        k(   59) = (   0.1666667   0.3333333   0.3333333), wk =   0.0138889
        k(   60) = (   0.1666667   0.3333333   0.4166667), wk =   0.0277778
        k(   61) = (   0.1666667   0.3333333  -0.5000000), wk =   0.0138889
        k(   62) = (   0.1666667   0.4166667   0.4166667), wk =   0.0138889
        k(   63) = (   0.1666667   0.4166667  -0.5000000), wk =   0.0138889
        k(   64) = (   0.1666667  -0.5000000  -0.5000000), wk =   0.0034722
        k(   65) = (   0.2500000   0.2500000   0.2500000), wk =   0.0046296
        k(   66) = (   0.2500000   0.2500000   0.3333333), wk =   0.0138889
        k(   67) = (   0.2500000   0.2500000   0.4166667), wk =   0.0138889
        k(   68) = (   0.2500000   0.2500000  -0.5000000), wk =   0.0069444
        k(   69) = (   0.2500000   0.3333333   0.3333333), wk =   0.0138889
        k(   70) = (   0.2500000   0.3333333   0.4166667), wk =   0.0277778
        k(   71) = (   0.2500000   0.3333333  -0.5000000), wk =   0.0138889
        k(   72) = (   0.2500000   0.4166667   0.4166667), wk =   0.0138889
        k(   73) = (   0.2500000   0.4166667  -0.5000000), wk =   0.0138889
        k(   74) = (   0.2500000  -0.5000000  -0.5000000), wk =   0.0034722
        k(   75) = (   0.3333333   0.3333333   0.3333333), wk =   0.0046296
        k(   76) = (   0.3333333   0.3333333   0.4166667), wk =   0.0138889
        k(   77) = (   0.3333333   0.3333333  -0.5000000), wk =   0.0069444
        k(   78) = (   0.3333333   0.4166667   0.4166667), wk =   0.0138889
        k(   79) = (   0.3333333   0.4166667  -0.5000000), wk =   0.0138889
        k(   80) = (   0.3333333  -0.5000000  -0.5000000), wk =   0.0034722
        k(   81) = (   0.4166667   0.4166667   0.4166667), wk =   0.0046296
        k(   82) = (   0.4166667   0.4166667  -0.5000000), wk =   0.0069444
        k(   83) = (   0.4166667  -0.5000000  -0.5000000), wk =   0.0034722
        k(   84) = (  -0.5000000  -0.5000000  -0.5000000), wk =   0.0005787

                       cryst. coord.
        k(    1) = (   0.0000000   0.0000000   0.0000000), wk =   0.0005787
        k(    2) = (   0.0000000   0.0000000   0.0833333), wk =   0.0034722
        k(    3) = (   0.0000000   0.0000000   0.1666667), wk =   0.0034722
        k(    4) = (   0.0000000   0.0000000   0.2500000), wk =   0.0034722
        k(    5) = (   0.0000000   0.0000000   0.3333333), wk =   0.0034722
        k(    6) = (   0.0000000   0.0000000   0.4166667), wk =   0.0034722
        k(    7) = (   0.0000000   0.0000000  -0.5000000), wk =   0.0017361
        k(    8) = (   0.0000000   0.0833333   0.0833333), wk =   0.0069444
        k(    9) = (   0.0000000   0.0833333   0.1666667), wk =   0.0138889
        k(   10) = (   0.0000000   0.0833333   0.2500000), wk =   0.0138889
        k(   11) = (   0.0000000   0.0833333   0.3333333), wk =   0.0138889
        k(   12) = (   0.0000000   0.0833333   0.4166667), wk =   0.0138889
        k(   13) = (   0.0000000   0.0833333  -0.5000000), wk =   0.0069444
        k(   14) = (   0.0000000   0.1666667   0.1666667), wk =   0.0069444
        k(   15) = (   0.0000000   0.1666667   0.2500000), wk =   0.0138889
        k(   16) = (   0.0000000   0.1666667   0.3333333), wk =   0.0138889
        k(   17) = (   0.0000000   0.1666667   0.4166667), wk =   0.0138889
        k(   18) = (   0.0000000   0.1666667  -0.5000000), wk =   0.0069444
        k(   19) = (   0.0000000   0.2500000   0.2500000), wk =   0.0069444
        k(   20) = (   0.0000000   0.2500000   0.3333333), wk =   0.0138889
        k(   21) = (   0.0000000   0.2500000   0.4166667), wk =   0.0138889
        k(   22) = (   0.0000000   0.2500000  -0.5000000), wk =   0.0069444
        k(   23) = (   0.0000000   0.3333333   0.3333333), wk =   0.0069444
        k(   24) = (   0.0000000   0.3333333   0.4166667), wk =   0.0138889
        k(   25) = (   0.0000000   0.3333333  -0.5000000), wk =   0.0069444
        k(   26) = (   0.0000000   0.4166667   0.4166667), wk =   0.0069444
        k(   27) = (   0.0000000   0.4166667  -0.5000000), wk =   0.0069444
        k(   28) = (   0.0000000  -0.5000000  -0.5000000), wk =   0.0017361
        k(   29) = (   0.0833333   0.0833333   0.0833333), wk =   0.0046296
        k(   30) = (   0.0833333   0.0833333   0.1666667), wk =   0.0138889
        k(   31) = (   0.0833333   0.0833333   0.2500000), wk =   0.0138889
        k(   32) = (   0.0833333   0.0833333   0.3333333), wk =   0.0138889
        k(   33) = (   0.0833333   0.0833333   0.4166667), wk =   0.0138889
        k(   34) = (   0.0833333   0.0833333  -0.5000000), wk =   0.0069444
        k(   35) = (   0.0833333   0.1666667   0.1666667), wk =   0.0138889
        k(   36) = (   0.0833333   0.1666667   0.2500000), wk =   0.0277778
        k(   37) = (   0.0833333   0.1666667   0.3333333), wk =   0.0277778
        k(   38) = (   0.0833333   0.1666667   0.4166667), wk =   0.0277778
        k(   39) = (   0.0833333   0.1666667  -0.5000000), wk =   0.0138889
        k(   40) = (   0.0833333   0.2500000   0.2500000), wk =   0.0138889
        k(   41) = (   0.0833333   0.2500000   0.3333333), wk =   0.0277778
        k(   42) = (   0.0833333   0.2500000   0.4166667), wk =   0.0277778
        k(   43) = (   0.0833333   0.2500000  -0.5000000), wk =   0.0138889
        k(   44) = (   0.0833333   0.3333333   0.3333333), wk =   0.0138889
        k(   45) = (   0.0833333   0.3333333   0.4166667), wk =   0.0277778
        k(   46) = (   0.0833333   0.3333333  -0.5000000), wk =   0.0138889
        k(   47) = (   0.0833333   0.4166667   0.4166667), wk =   0.0138889
        k(   48) = (   0.0833333   0.4166667  -0.5000000), wk =   0.0138889
        k(   49) = (   0.0833333  -0.5000000  -0.5000000), wk =   0.0034722
        k(   50) = (   0.1666667   0.1666667   0.1666667), wk =   0.0046296
        k(   51) = (   0.1666667   0.1666667   0.2500000), wk =   0.0138889
        k(   52) = (   0.1666667   0.1666667   0.3333333), wk =   0.0138889
        k(   53) = (   0.1666667   0.1666667   0.4166667), wk =   0.0138889
        k(   54) = (   0.1666667   0.1666667  -0.5000000), wk =   0.0069444
        k(   55) = (   0.1666667   0.2500000   0.2500000), wk =   0.0138889
        k(   56) = (   0.1666667   0.2500000   0.3333333), wk =   0.0277778
        k(   57) = (   0.1666667   0.2500000   0.4166667), wk =   0.0277778
        k(   58) = (   0.1666667   0.2500000  -0.5000000), wk =   0.0138889
        k(   59) = (   0.1666667   0.3333333   0.3333333), wk =   0.0138889
        k(   60) = (   0.1666667   0.3333333   0.4166667), wk =   0.0277778
        k(   61) = (   0.1666667   0.3333333  -0.5000000), wk =   0.0138889
        k(   62) = (   0.1666667   0.4166667   0.4166667), wk =   0.0138889
        k(   63) = (   0.1666667   0.4166667  -0.5000000), wk =   0.0138889
        k(   64) = (   0.1666667  -0.5000000  -0.5000000), wk =   0.0034722
        k(   65) = (   0.2500000   0.2500000   0.2500000), wk =   0.0046296
        k(   66) = (   0.2500000   0.2500000   0.3333333), wk =   0.0138889
        k(   67) = (   0.2500000   0.2500000   0.4166667), wk =   0.0138889
        k(   68) = (   0.2500000   0.2500000  -0.5000000), wk =   0.0069444
        k(   69) = (   0.2500000   0.3333333   0.3333333), wk =   0.0138889
        k(   70) = (   0.2500000   0.3333333   0.4166667), wk =   0.0277778
        k(   71) = (   0.2500000   0.3333333  -0.5000000), wk =   0.0138889
        k(   72) = (   0.2500000   0.4166667   0.4166667), wk =   0.0138889
        k(   73) = (   0.2500000   0.4166667  -0.5000000), wk =   0.0138889
        k(   74) = (   0.2500000  -0.5000000  -0.5000000), wk =   0.0034722
        k(   75) = (   0.3333333   0.3333333   0.3333333), wk =   0.0046296
        k(   76) = (   0.3333333   0.3333333   0.4166667), wk =   0.0138889
        k(   77) = (   0.3333333   0.3333333  -0.5000000), wk =   0.0069444
        k(   78) = (   0.3333333   0.4166667   0.4166667), wk =   0.0138889
        k(   79) = (   0.3333333   0.4166667  -0.5000000), wk =   0.0138889
        k(   80) = (   0.3333333  -0.5000000  -0.5000000), wk =   0.0034722
        k(   81) = (   0.4166667   0.4166667   0.4166667), wk =   0.0046296
        k(   82) = (   0.4166667   0.4166667  -0.5000000), wk =   0.0069444
        k(   83) = (   0.4166667  -0.5000000  -0.5000000), wk =   0.0034722
        k(   84) = (  -0.5000000  -0.5000000  -0.5000000), wk =   0.0005787

     Dense  grid:   763649 G-vectors     FFT dimensions: ( 120, 120, 120)

     Smooth grid:   146965 G-vectors     FFT dimensions: (  72,  72,  72)

     Dynamical RAM for                 wfc:       5.39 MB

     Dynamical RAM for     wfc (w. buffer):     231.90 MB

     Dynamical RAM for           str. fact:       1.46 MB

     Dynamical RAM for           local pot:       0.00 MB

     Dynamical RAM for          nlocal pot:      10.09 MB

     Dynamical RAM for                qrad:       2.64 MB

     Dynamical RAM for          rho,v,vnew:      18.63 MB

     Dynamical RAM for               rhoin:       6.21 MB

     Dynamical RAM for            rho*nmix:      46.61 MB

     Dynamical RAM for           G-vectors:       5.60 MB

     Dynamical RAM for          h,s,v(r/c):       1.09 MB

     Dynamical RAM for          <psi|beta>:       0.68 MB

     Dynamical RAM for                 psi:      10.79 MB

     Dynamical RAM for                hpsi:      10.79 MB

     Dynamical RAM for                spsi:      10.79 MB

     Dynamical RAM for      wfcinit/wfcrot:      11.79 MB

     Dynamical RAM for           addusdens:      76.10 MB

     Dynamical RAM for          addusforce:      86.06 MB

     Dynamical RAM for         addusstress:      74.83 MB

     Estimated static dynamical RAM per process >     289.31 MB

     Estimated max dynamical RAM per process >     421.98 MB

     Estimated total dynamical RAM >      12.09 GB
     Generating pointlists ...
     new r_m :   0.1786 (alat units)  1.9362 (a.u.) for type    1

     Initial potential from superposition of free atoms

     starting charge     255.9930, renormalised to     256.0000
     Starting wfcs are  160 randomized atomic wfcs
     Checking if some PAW data can be deallocated... 

     total cpu time spent up to now is       13.8 secs

     per-process dynamical memory:   494.6 Mb

     Self-consistent Calculation

     iteration #  1     ecut=    90.00 Ry     beta= 0.20
     Davidson diagonalization with overlap

---- Real-time Memory Report at c_bands before calling an iterative solver
           574 MiB given to the printing process from OS
           482 MiB allocation reported by mallinfo(arena+hblkhd)
        432496 MiB available memory on the node where the printing process lives
------------------
     ethr =  1.00E-02,  avg # of iterations =  3.6

     total cpu time spent up to now is       56.1 secs

     total energy              =   -5265.73202778 Ry
     estimated scf accuracy    <       4.41112842 Ry

     total magnetization       =    50.03 Bohr mag/cell
     absolute magnetization    =    50.77 Bohr mag/cell

     iteration #  2     ecut=    90.00 Ry     beta= 0.20
     Davidson diagonalization with overlap

---- Real-time Memory Report at c_bands before calling an iterative solver
           653 MiB given to the printing process from OS
           498 MiB allocation reported by mallinfo(arena+hblkhd)
        431998 MiB available memory on the node where the printing process lives
------------------
     ethr =  1.72E-03,  avg # of iterations =  2.5

     negative rho (up, down):  0.000E+00 4.146E-03

     total cpu time spent up to now is       90.8 secs

     total energy              =   -5267.83473047 Ry
     estimated scf accuracy    <       3.01305165 Ry

     total magnetization       =    48.77 Bohr mag/cell
     absolute magnetization    =    49.92 Bohr mag/cell

     iteration #  3     ecut=    90.00 Ry     beta= 0.20
     Davidson diagonalization with overlap

---- Real-time Memory Report at c_bands before calling an iterative solver
           655 MiB given to the printing process from OS
           500 MiB allocation reported by mallinfo(arena+hblkhd)
        431987 MiB available memory on the node where the printing process lives
------------------
     ethr =  1.18E-03,  avg # of iterations =  1.5

     negative rho (up, down):  0.000E+00 5.291E-03

     total cpu time spent up to now is      125.5 secs

     total energy              =   -5268.25713802 Ry
     estimated scf accuracy    <       0.67947650 Ry

     total magnetization       =    41.28 Bohr mag/cell
     absolute magnetization    =    43.85 Bohr mag/cell

     iteration #  4     ecut=    90.00 Ry     beta= 0.20
     Davidson diagonalization with overlap

---- Real-time Memory Report at c_bands before calling an iterative solver
           657 MiB given to the printing process from OS
           501 MiB allocation reported by mallinfo(arena+hblkhd)
        432223 MiB available memory on the node where the printing process lives
------------------
     ethr =  2.65E-04,  avg # of iterations =  1.9

     negative rho (up, down):  0.000E+00 5.160E-03

     total cpu time spent up to now is      159.3 secs

     total energy              =   -5268.28967913 Ry
     estimated scf accuracy    <       0.43016440 Ry

     total magnetization       =    40.47 Bohr mag/cell
     absolute magnetization    =    43.10 Bohr mag/cell

     iteration #  5     ecut=    90.00 Ry     beta= 0.20
     Davidson diagonalization with overlap

---- Real-time Memory Report at c_bands before calling an iterative solver
           658 MiB given to the printing process from OS
           503 MiB allocation reported by mallinfo(arena+hblkhd)
        445570 MiB available memory on the node where the printing process lives
------------------
     ethr =  1.68E-04,  avg # of iterations =  1.3

     negative rho (up, down):  0.000E+00 4.897E-03

     total cpu time spent up to now is      190.7 secs

     total energy              =   -5268.28816246 Ry
     estimated scf accuracy    <       0.20741297 Ry

     total magnetization       =    40.30 Bohr mag/cell
     absolute magnetization    =    42.84 Bohr mag/cell

     iteration #  6     ecut=    90.00 Ry     beta= 0.20
     Davidson diagonalization with overlap

---- Real-time Memory Report at c_bands before calling an iterative solver
           660 MiB given to the printing process from OS
           504 MiB allocation reported by mallinfo(arena+hblkhd)
        448332 MiB available memory on the node where the printing process lives
------------------
     ethr =  8.10E-05,  avg # of iterations =  1.4

     negative rho (up, down):  0.000E+00 4.450E-03

     total cpu time spent up to now is      222.5 secs

     total energy              =   -5268.27505660 Ry
     estimated scf accuracy    <       0.14998534 Ry

     total magnetization       =    40.00 Bohr mag/cell
     absolute magnetization    =    42.51 Bohr mag/cell

     iteration #  7     ecut=    90.00 Ry     beta= 0.20
     Davidson diagonalization with overlap

---- Real-time Memory Report at c_bands before calling an iterative solver
           661 MiB given to the printing process from OS
           506 MiB allocation reported by mallinfo(arena+hblkhd)
        448458 MiB available memory on the node where the printing process lives
------------------
     ethr =  5.86E-05,  avg # of iterations =  1.7

     negative rho (up, down):  0.000E+00 4.073E-03

     total cpu time spent up to now is      255.5 secs

     total energy              =   -5268.28272095 Ry
     estimated scf accuracy    <       0.06664557 Ry

     total magnetization       =    39.19 Bohr mag/cell
     absolute magnetization    =    41.72 Bohr mag/cell

     iteration #  8     ecut=    90.00 Ry     beta= 0.20
     Davidson diagonalization with overlap

---- Real-time Memory Report at c_bands before calling an iterative solver
           663 MiB given to the printing process from OS
           508 MiB allocation reported by mallinfo(arena+hblkhd)
        448581 MiB available memory on the node where the printing process lives
------------------
     ethr =  2.60E-05,  avg # of iterations =  1.3

     negative rho (up, down):  0.000E+00 2.854E-03

     total cpu time spent up to now is      287.6 secs

     total energy              =   -5268.28635413 Ry
     estimated scf accuracy    <       0.05109424 Ry

     total magnetization       =    38.46 Bohr mag/cell
     absolute magnetization    =    41.02 Bohr mag/cell

     iteration #  9     ecut=    90.00 Ry     beta= 0.20
     Davidson diagonalization with overlap

---- Real-time Memory Report at c_bands before calling an iterative solver
           665 MiB given to the printing process from OS
           510 MiB allocation reported by mallinfo(arena+hblkhd)
        453001 MiB available memory on the node where the printing process lives
------------------
     ethr =  2.00E-05,  avg # of iterations =  2.2

     negative rho (up, down):  0.000E+00 1.164E-03

     total cpu time spent up to now is      321.9 secs

     total energy              =   -5268.29485273 Ry
     estimated scf accuracy    <       0.02857426 Ry

     total magnetization       =    36.96 Bohr mag/cell
     absolute magnetization    =    39.56 Bohr mag/cell

     iteration # 10     ecut=    90.00 Ry     beta= 0.20
     Davidson diagonalization with overlap

---- Real-time Memory Report at c_bands before calling an iterative solver
           666 MiB given to the printing process from OS
           511 MiB allocation reported by mallinfo(arena+hblkhd)
        453240 MiB available memory on the node where the printing process lives
------------------
     ethr =  1.12E-05,  avg # of iterations =  3.4

     negative rho (up, down):  0.000E+00 9.608E-04

     total cpu time spent up to now is      363.3 secs

     total energy              =   -5268.30750473 Ry
     estimated scf accuracy    <       0.00683311 Ry

     total magnetization       =    35.73 Bohr mag/cell
     absolute magnetization    =    38.12 Bohr mag/cell

     iteration # 11     ecut=    90.00 Ry     beta= 0.20
     Davidson diagonalization with overlap

---- Real-time Memory Report at c_bands before calling an iterative solver
           667 MiB given to the printing process from OS
           511 MiB allocation reported by mallinfo(arena+hblkhd)
        453286 MiB available memory on the node where the printing process lives
------------------
     ethr =  2.67E-06,  avg # of iterations =  3.5

     negative rho (up, down):  0.000E+00 8.547E-04

     total cpu time spent up to now is      401.3 secs

     total energy              =   -5268.30824880 Ry
     estimated scf accuracy    <       0.01030649 Ry

     total magnetization       =    35.48 Bohr mag/cell
     absolute magnetization    =    37.77 Bohr mag/cell

     iteration # 12     ecut=    90.00 Ry     beta= 0.20
     Davidson diagonalization with overlap

---- Real-time Memory Report at c_bands before calling an iterative solver
           667 MiB given to the printing process from OS
           511 MiB allocation reported by mallinfo(arena+hblkhd)
        453379 MiB available memory on the node where the printing process lives
------------------
     ethr =  2.67E-06,  avg # of iterations =  2.3

     negative rho (up, down):  0.000E+00 8.317E-04

     total cpu time spent up to now is      436.7 secs

     total energy              =   -5268.30975409 Ry
     estimated scf accuracy    <       0.00089856 Ry

     total magnetization       =    35.83 Bohr mag/cell
     absolute magnetization    =    38.01 Bohr mag/cell

     iteration # 13     ecut=    90.00 Ry     beta= 0.20
     Davidson diagonalization with overlap

---- Real-time Memory Report at c_bands before calling an iterative solver
           667 MiB given to the printing process from OS
           512 MiB allocation reported by mallinfo(arena+hblkhd)
        453471 MiB available memory on the node where the printing process lives
------------------
     ethr =  3.51E-07,  avg # of iterations =  3.5

     negative rho (up, down):  0.000E+00 7.382E-04

     total cpu time spent up to now is      474.3 secs

     total energy              =   -5268.30923513 Ry
     estimated scf accuracy    <       0.00057818 Ry

     total magnetization       =    35.77 Bohr mag/cell
     absolute magnetization    =    37.93 Bohr mag/cell

     iteration # 14     ecut=    90.00 Ry     beta= 0.20
     Davidson diagonalization with overlap

---- Real-time Memory Report at c_bands before calling an iterative solver
           667 MiB given to the printing process from OS
           512 MiB allocation reported by mallinfo(arena+hblkhd)
        453500 MiB available memory on the node where the printing process lives
------------------
     ethr =  2.26E-07,  avg # of iterations =  4.9

     negative rho (up, down):  0.000E+00 7.906E-04

     total cpu time spent up to now is      531.0 secs

     total energy              =   -5268.31022390 Ry
     estimated scf accuracy    <       0.00164536 Ry

     total magnetization       =    35.28 Bohr mag/cell
     absolute magnetization    =    37.35 Bohr mag/cell

     iteration # 15     ecut=    90.00 Ry     beta= 0.20
     Davidson diagonalization with overlap

---- Real-time Memory Report at c_bands before calling an iterative solver
           667 MiB given to the printing process from OS
           512 MiB allocation reported by mallinfo(arena+hblkhd)
        453565 MiB available memory on the node where the printing process lives
------------------
     ethr =  2.26E-07,  avg # of iterations =  3.5

     negative rho (up, down):  0.000E+00 7.815E-04

     total cpu time spent up to now is      574.3 secs

     total energy              =   -5268.31062473 Ry
     estimated scf accuracy    <       0.00005509 Ry

     total magnetization       =    35.54 Bohr mag/cell
     absolute magnetization    =    37.60 Bohr mag/cell

     iteration # 16     ecut=    90.00 Ry     beta= 0.20
     Davidson diagonalization with overlap

---- Real-time Memory Report at c_bands before calling an iterative solver
           668 MiB given to the printing process from OS
           513 MiB allocation reported by mallinfo(arena+hblkhd)
        463917 MiB available memory on the node where the printing process lives
------------------
     ethr =  2.15E-08,  avg # of iterations =  3.7

     negative rho (up, down):  0.000E+00 7.792E-04

     total cpu time spent up to now is      615.0 secs

     total energy              =   -5268.31064022 Ry
     estimated scf accuracy    <       0.00001608 Ry

     total magnetization       =    35.50 Bohr mag/cell
     absolute magnetization    =    37.55 Bohr mag/cell

     iteration # 17     ecut=    90.00 Ry     beta= 0.20
     Davidson diagonalization with overlap

---- Real-time Memory Report at c_bands before calling an iterative solver
           668 MiB given to the printing process from OS
           513 MiB allocation reported by mallinfo(arena+hblkhd)
        463932 MiB available memory on the node where the printing process lives
------------------
     ethr =  6.28E-09,  avg # of iterations =  3.9

     negative rho (up, down):  0.000E+00 7.829E-04

     total cpu time spent up to now is      654.2 secs

     total energy              =   -5268.31064574 Ry
     estimated scf accuracy    <       0.00000955 Ry

     total magnetization       =    35.47 Bohr mag/cell
     absolute magnetization    =    37.52 Bohr mag/cell

     iteration # 18     ecut=    90.00 Ry     beta= 0.20
     Davidson diagonalization with overlap

---- Real-time Memory Report at c_bands before calling an iterative solver
           668 MiB given to the printing process from OS
           513 MiB allocation reported by mallinfo(arena+hblkhd)
        463930 MiB available memory on the node where the printing process lives
------------------
     ethr =  3.73E-09,  avg # of iterations =  1.3

     negative rho (up, down):  0.000E+00 7.838E-04

     total cpu time spent up to now is      685.8 secs

     total energy              =   -5268.31064713 Ry
     estimated scf accuracy    <       0.00000242 Ry

     total magnetization       =    35.49 Bohr mag/cell
     absolute magnetization    =    37.53 Bohr mag/cell

     iteration # 19     ecut=    90.00 Ry     beta= 0.20
     Davidson diagonalization with overlap

---- Real-time Memory Report at c_bands before calling an iterative solver
           668 MiB given to the printing process from OS
           513 MiB allocation reported by mallinfo(arena+hblkhd)
        463930 MiB available memory on the node where the printing process lives
------------------
     ethr =  9.45E-10,  avg # of iterations =  2.5

     negative rho (up, down):  0.000E+00 7.868E-04

     total cpu time spent up to now is      721.8 secs

     total energy              =   -5268.31064907 Ry
     estimated scf accuracy    <       0.00000219 Ry

     total magnetization       =    35.48 Bohr mag/cell
     absolute magnetization    =    37.52 Bohr mag/cell

     iteration # 20     ecut=    90.00 Ry     beta= 0.20
     Davidson diagonalization with overlap

---- Real-time Memory Report at c_bands before calling an iterative solver
           668 MiB given to the printing process from OS
           514 MiB allocation reported by mallinfo(arena+hblkhd)
        463930 MiB available memory on the node where the printing process lives
------------------
     ethr =  8.56E-10,  avg # of iterations =  2.8

     negative rho (up, down):  0.000E+00 7.856E-04

     total cpu time spent up to now is      759.1 secs

     total energy              =   -5268.31064978 Ry
     estimated scf accuracy    <       0.00000044 Ry

     total magnetization       =    35.48 Bohr mag/cell
     absolute magnetization    =    37.52 Bohr mag/cell

     iteration # 21     ecut=    90.00 Ry     beta= 0.20
     Davidson diagonalization with overlap

---- Real-time Memory Report at c_bands before calling an iterative solver
           668 MiB given to the printing process from OS
           514 MiB allocation reported by mallinfo(arena+hblkhd)
        463901 MiB available memory on the node where the printing process lives
------------------
     ethr =  1.70E-10,  avg # of iterations =  4.1

     negative rho (up, down):  0.000E+00 7.851E-04

     total cpu time spent up to now is      798.8 secs

     total energy              =   -5268.31065028 Ry
     estimated scf accuracy    <       0.00000031 Ry

     total magnetization       =    35.48 Bohr mag/cell
     absolute magnetization    =    37.52 Bohr mag/cell

     iteration # 22     ecut=    90.00 Ry     beta= 0.20
     Davidson diagonalization with overlap

---- Real-time Memory Report at c_bands before calling an iterative solver
           669 MiB given to the printing process from OS
           515 MiB allocation reported by mallinfo(arena+hblkhd)
        463927 MiB available memory on the node where the printing process lives
------------------
     ethr =  1.19E-10,  avg # of iterations =  4.9

     negative rho (up, down):  0.000E+00 7.849E-04

     total cpu time spent up to now is      841.8 secs

     total energy              =   -5268.31065047 Ry
     estimated scf accuracy    <       0.00000011 Ry

     total magnetization       =    35.48 Bohr mag/cell
     absolute magnetization    =    37.52 Bohr mag/cell

     iteration # 23     ecut=    90.00 Ry     beta= 0.20
     Davidson diagonalization with overlap

---- Real-time Memory Report at c_bands before calling an iterative solver
           669 MiB given to the printing process from OS
           515 MiB allocation reported by mallinfo(arena+hblkhd)
        463926 MiB available memory on the node where the printing process lives
------------------
     ethr =  4.39E-11,  avg # of iterations =  2.1

     negative rho (up, down):  0.000E+00 7.849E-04

     total cpu time spent up to now is      875.8 secs

     total energy              =   -5268.31065049 Ry
     estimated scf accuracy    <       0.00000002 Ry

     total magnetization       =    35.48 Bohr mag/cell
     absolute magnetization    =    37.52 Bohr mag/cell

     iteration # 24     ecut=    90.00 Ry     beta= 0.20
     Davidson diagonalization with overlap

---- Real-time Memory Report at c_bands before calling an iterative solver
           669 MiB given to the printing process from OS
           515 MiB allocation reported by mallinfo(arena+hblkhd)
        463921 MiB available memory on the node where the printing process lives
------------------
     ethr =  7.85E-12,  avg # of iterations =  3.3

     negative rho (up, down):  0.000E+00 7.849E-04

     total cpu time spent up to now is      913.7 secs

     total energy              =   -5268.31065051 Ry
     estimated scf accuracy    <       0.00000001 Ry

     total magnetization       =    35.48 Bohr mag/cell
     absolute magnetization    =    37.52 Bohr mag/cell

     iteration # 25     ecut=    90.00 Ry     beta= 0.20
     Davidson diagonalization with overlap

---- Real-time Memory Report at c_bands before calling an iterative solver
           669 MiB given to the printing process from OS
           515 MiB allocation reported by mallinfo(arena+hblkhd)
        463928 MiB available memory on the node where the printing process lives
------------------
     ethr =  5.18E-12,  avg # of iterations =  3.5

     negative rho (up, down):  0.000E+00 7.849E-04

     total cpu time spent up to now is      951.7 secs

     total energy              =   -5268.31065052 Ry
     estimated scf accuracy    <       0.00000001 Ry

     total magnetization       =    35.48 Bohr mag/cell
     absolute magnetization    =    37.52 Bohr mag/cell

     iteration # 26     ecut=    90.00 Ry     beta= 0.20
     Davidson diagonalization with overlap

---- Real-time Memory Report at c_bands before calling an iterative solver
           670 MiB given to the printing process from OS
           516 MiB allocation reported by mallinfo(arena+hblkhd)
        463926 MiB available memory on the node where the printing process lives
------------------
     ethr =  4.14E-12,  avg # of iterations =  2.0

     negative rho (up, down):  0.000E+00 7.850E-04

     total cpu time spent up to now is      985.6 secs

     total energy              =   -5268.31065052 Ry
     estimated scf accuracy    <       0.00000002 Ry

     total magnetization       =    35.48 Bohr mag/cell
     absolute magnetization    =    37.52 Bohr mag/cell

     iteration # 27     ecut=    90.00 Ry     beta= 0.20
     Davidson diagonalization with overlap

---- Real-time Memory Report at c_bands before calling an iterative solver
           670 MiB given to the printing process from OS
           516 MiB allocation reported by mallinfo(arena+hblkhd)
        463944 MiB available memory on the node where the printing process lives
------------------
     ethr =  4.14E-12,  avg # of iterations =  4.7

     negative rho (up, down):  0.000E+00 7.850E-04

     Magnetic moment per site  (integrated on atomic sphere of radius R)
     atom   1 (R=0.179)  charge= 14.4212  magn=  2.2718
     atom   2 (R=0.179)  charge= 14.4212  magn=  2.2720
     atom   3 (R=0.179)  charge= 14.4212  magn=  2.2718
     atom   4 (R=0.179)  charge= 14.4212  magn=  2.2720
     atom   5 (R=0.179)  charge= 14.4212  magn=  2.2718
     atom   6 (R=0.179)  charge= 14.4212  magn=  2.2720
     atom   7 (R=0.179)  charge= 14.4212  magn=  2.2719
     atom   8 (R=0.179)  charge= 14.4212  magn=  2.2720
     atom   9 (R=0.179)  charge= 14.4212  magn=  2.2718
     atom  10 (R=0.179)  charge= 14.4212  magn=  2.2720
     atom  11 (R=0.179)  charge= 14.4212  magn=  2.2719
     atom  12 (R=0.179)  charge= 14.4212  magn=  2.2720
     atom  13 (R=0.179)  charge= 14.4212  magn=  2.2719
     atom  14 (R=0.179)  charge= 14.4212  magn=  2.2720
     atom  15 (R=0.179)  charge= 14.4212  magn=  2.2720
     atom  16 (R=0.179)  charge= 14.4212  magn=  2.2720

     total cpu time spent up to now is     1028.9 secs

     End of self-consistent calculation

 ------ SPIN UP ------------


          k = 0.0000 0.0000 0.0000 ( 18325 PWs)   bands (ev):

   -70.5978 -70.5351 -70.5351 -70.5351 -70.5350 -70.5350 -70.5350 -70.5307
   -70.5307 -70.5307 -70.5306 -70.5306 -70.5306 -70.5264 -70.5262 -70.4808
   -36.7844 -36.7844 -36.7844 -36.7844 -36.7844 -36.7844 -36.6843 -36.6843
   -36.6843 -36.6094 -36.6094 -36.6094 -36.6093 -36.6093 -36.6093 -36.5993
   -36.5993 -36.5993 -36.5992 -36.5992 -36.5992 -36.5496 -36.5496 -36.5496
   -36.5496 -36.5496 -36.5496 -36.5495 -36.5495 -36.5495 -36.5495 -36.5495
   -36.5495 -36.5448 -36.5448 -36.5448 -36.5447 -36.5447 -36.5447 -36.4222
   -36.4222 -36.4222 -36.4217 -36.4217 -36.4217 -36.4217 -36.4217 -36.4217
     9.1532  12.6987  12.6987  12.6987  12.6987  12.6987  12.6987  12.7943
    12.7943  12.8953  12.8953  12.8953  12.8953  12.8953  12.8953  14.2052
    14.2052  14.2052  14.2052  14.2052  14.2052  14.3417  14.3417  14.3417
    14.3417  14.3417  14.3417  14.5587  14.5587  14.5587  14.5587  14.5587
    14.5587  15.2361  15.2361  15.2361  15.6584  15.6584  15.6584  15.6584
    15.6584  15.6584  15.6585  15.6585  15.6585  15.6585  15.6585  15.6585
    16.3646  16.3646  16.3646  16.3647  16.3647  16.3647  16.3661  16.3661
    16.4354  16.4354  16.4354  16.4354  16.4354  16.4354  16.5439  16.5439
    16.5439  16.5440  16.5440  16.5440  16.5776  16.5776  16.5776  16.5776
    17.5462  17.5462  17.5462  17.5877  17.5877  17.5877  17.5877  17.5877
    17.5877  17.8041  17.8041  17.8041  17.8041  17.8041  17.8041  17.9306
    17.9306  17.9306

     occupation numbers 
     1.0000   1.0000   1.0000   1.0000   1.0000   1.0000   1.0000   1.0000
     1.0000   1.0000   1.0000   1.0000   1.0000   1.0000   1.0000   1.0000
     1.0000   1.0000   1.0000   1.0000   1.0000   1.0000   1.0000   1.0000
     1.0000   1.0000   1.0000   1.0000   1.0000   1.0000   1.0000   1.0000
     1.0000   1.0000   1.0000   1.0000   1.0000   1.0000   1.0000   1.0000
     1.0000   1.0000   1.0000   1.0000   1.0000   1.0000   1.0000   1.0000
     1.0000   1.0000   1.0000   1.0000   1.0000   1.0000   1.0000   1.0000
     1.0000   1.0000   1.0000   1.0000   1.0000   1.0000   1.0000   1.0000
     1.0000   1.0000   1.0000   1.0000   1.0000   1.0000   1.0000   1.0000
     1.0000   1.0000   1.0000   1.0000   1.0000   1.0000   1.0000   1.0000
     1.0000   1.0000   1.0000   1.0000   1.0000   1.0000   1.0000   1.0000
     1.0000   1.0000   1.0000   1.0000   1.0000   1.0000   1.0000   1.0000
     1.0000   1.0000   1.0000   1.0000   1.0000   1.0000   1.0000   1.0000
     1.0000   1.0000   1.0000   1.0000   1.0000   1.0000   1.0000   1.0000
     1.0000   1.0000   1.0000   1.0000   1.0000   1.0000   1.0000   1.0000
     1.0000   1.0000   1.0000   1.0000   1.0000   1.0000   1.0000   1.0000
     1.0000   1.0000   1.0000   1.0000   1.0000   1.0000   1.0000   1.0000
     0.0714   0.0714   0.0714   0.0260   0.0260   0.0260   0.0260   0.0260
     0.0260   0.0000   0.0000   0.0000   0.0000   0.0000   0.0000   0.0000
     0.0000   0.0000

          k = 0.0000 0.0000 0.0833 ( 18389 PWs)   bands (ev):

   -70.5972 -70.5428 -70.5351 -70.5351 -70.5350 -70.5349 -70.5308 -70.5308
   -70.5307 -70.5307 -70.5306 -70.5305 -70.5275 -70.5264 -70.5263 -70.4813
   -36.7827 -36.7827 -36.7824 -36.7824 -36.7824 -36.7824 -36.6841 -36.6831
   -36.6831 -36.6255 -36.6230 -36.6230 -36.6177 -36.6177 -36.6176 -36.6176
   -36.5984 -36.5982 -36.5914 -36.5756 -36.5756 -36.5667 -36.5667 -36.5495
   -36.5495 -36.5494 -36.5494 -36.5457 -36.5456 -36.5449 -36.5449 -36.5448
   -36.5448 -36.5421 -36.5421 -36.5421 -36.5421 -36.5325 -36.5325 -36.4243
   -36.4233 -36.4233 -36.4232 -36.4232 -36.4228 -36.4228 -36.4228 -36.4228
     9.1885  12.5401  12.7086  12.7086  12.7086  12.7086  12.7228  12.7228
    12.8090  12.8095  12.9079  12.9079  12.9079  12.9079  13.1580  14.2019
    14.2019  14.2200  14.2200  14.2200  14.2200  14.2550  14.2550  14.3083
    14.3084  14.3239  14.4561  14.4561  14.5461  14.5461  14.5462  14.5462
    14.7943  15.2358  15.2358  15.2456  15.5449  15.5449  15.5891  15.5891
    15.5892  15.5892  15.6870  15.6870  15.6871  15.6871  15.7931  15.7931
    16.2143  16.3508  16.3722  16.4125  16.4125  16.4126  16.4126  16.4335
    16.4335  16.4336  16.4336  16.4385  16.4385  16.4695  16.4695  16.4696
    16.4696  16.5159  16.5445  16.5446  16.5765  16.5766  16.5770  16.5771
    17.2550  17.3858  17.3858  17.5165  17.5165  17.5358  17.5980  17.5980
    17.5981  17.5981  17.7896  17.7896  17.7896  17.7896  17.9518  17.9518
    17.9518  17.9518

     occupation numbers 
     1.0000   1.0000   1.0000   1.0000   1.0000   1.0000   1.0000   1.0000
     1.0000   1.0000   1.0000   1.0000   1.0000   1.0000   1.0000   1.0000
     1.0000   1.0000   1.0000   1.0000   1.0000   1.0000   1.0000   1.0000
     1.0000   1.0000   1.0000   1.0000   1.0000   1.0000   1.0000   1.0000
     1.0000   1.0000   1.0000   1.0000   1.0000   1.0000   1.0000   1.0000
     1.0000   1.0000   1.0000   1.0000   1.0000   1.0000   1.0000   1.0000
     1.0000   1.0000   1.0000   1.0000   1.0000   1.0000   1.0000   1.0000
     1.0000   1.0000   1.0000   1.0000   1.0000   1.0000   1.0000   1.0000
     1.0000   1.0000   1.0000   1.0000   1.0000   1.0000   1.0000   1.0000
     1.0000   1.0000   1.0000   1.0000   1.0000   1.0000   1.0000   1.0000
     1.0000   1.0000   1.0000   1.0000   1.0000   1.0000   1.0000   1.0000
     1.0000   1.0000   1.0000   1.0000   1.0000   1.0000   1.0000   1.0000
     1.0000   1.0000   1.0000   1.0000   1.0000   1.0000   1.0000   1.0000
     1.0000   1.0000   1.0000   1.0000   1.0000   1.0000   1.0000   1.0000
     1.0000   1.0000   1.0000   1.0000   1.0000   1.0000   1.0000   1.0000
     1.0000   1.0000   1.0000   1.0000   1.0000   1.0000   1.0000   1.0000
     1.0000   1.0000   1.0000   1.0000   1.0000   1.0000   1.0000   1.0000
     1.0833   0.7305   0.7305   0.1325   0.1325   0.0896   0.0197   0.0197
     0.0197   0.0196   0.0000   0.0000   0.0000   0.0000   0.0000   0.0000
     0.0000   0.0000

          k = 0.0000 0.0000 0.1667 ( 18381 PWs)   bands (ev):

   -70.5955 -70.5505 -70.5348 -70.5348 -70.5347 -70.5347 -70.5310 -70.5310
   -70.5309 -70.5309 -70.5304 -70.5303 -70.5266 -70.5265 -70.5202 -70.4825
   -36.7779 -36.7779 -36.7766 -36.7766 -36.7766 -36.7766 -36.6836 -36.6796
   -36.6796 -36.6464 -36.6464 -36.6394 -36.6357 -36.6357 -36.6357 -36.6357
   -36.5956 -36.5955 -36.5837 -36.5837 -36.5718 -36.5525 -36.5525 -36.5493
   -36.5493 -36.5492 -36.5492 -36.5485 -36.5484 -36.5451 -36.5451 -36.5450
   -36.5450 -36.5264 -36.5264 -36.5264 -36.5263 -36.5158 -36.5158 -36.4305
   -36.4276 -36.4276 -36.4265 -36.4265 -36.4263 -36.4263 -36.4263 -36.4263
     9.2937  12.1189  12.7375  12.7375  12.7375  12.7375  12.7940  12.7940
    12.8528  12.8540  12.9406  12.9406  12.9406  12.9406  13.3178  14.0942
    14.1922  14.1922  14.1931  14.1931  14.2120  14.2121  14.2640  14.2640
    14.2640  14.2640  14.5228  14.5228  14.5228  14.5228  14.6000  14.6000
    15.0265  15.2351  15.2351  15.2737  15.4319  15.4319  15.4319  15.4319
    15.4524  15.4524  15.7635  15.7635  15.7635  15.7635  15.9487  15.9487
    16.0674  16.2062  16.2062  16.2063  16.2063  16.3051  16.3902  16.4192
    16.4192  16.4192  16.4192  16.4473  16.4474  16.5461  16.5462  16.5728
    16.5729  16.5753  16.5754  16.5901  16.5901  16.5902  16.5902  16.6654
    16.9426  16.9426  17.0212  17.4306  17.4306  17.5051  17.6286  17.6286
    17.6287  17.6287  17.7463  17.7463  17.7463  17.7463  17.9909  17.9909
    17.9909  17.9909

     occupation numbers 
     1.0000   1.0000   1.0000   1.0000   1.0000   1.0000   1.0000   1.0000
     1.0000   1.0000   1.0000   1.0000   1.0000   1.0000   1.0000   1.0000
     1.0000   1.0000   1.0000   1.0000   1.0000   1.0000   1.0000   1.0000
     1.0000   1.0000   1.0000   1.0000   1.0000   1.0000   1.0000   1.0000
     1.0000   1.0000   1.0000   1.0000   1.0000   1.0000   1.0000   1.0000
     1.0000   1.0000   1.0000   1.0000   1.0000   1.0000   1.0000   1.0000
     1.0000   1.0000   1.0000   1.0000   1.0000   1.0000   1.0000   1.0000
     1.0000   1.0000   1.0000   1.0000   1.0000   1.0000   1.0000   1.0000
     1.0000   1.0000   1.0000   1.0000   1.0000   1.0000   1.0000   1.0000
     1.0000   1.0000   1.0000   1.0000   1.0000   1.0000   1.0000   1.0000
     1.0000   1.0000   1.0000   1.0000   1.0000   1.0000   1.0000   1.0000
     1.0000   1.0000   1.0000   1.0000   1.0000   1.0000   1.0000   1.0000
     1.0000   1.0000   1.0000   1.0000   1.0000   1.0000   1.0000   1.0000
     1.0000   1.0000   1.0000   1.0000   1.0000   1.0000   1.0000   1.0000
     1.0000   1.0000   1.0000   1.0000   1.0000   1.0000   1.0000   1.0000
     1.0000   1.0000   1.0000   1.0000   1.0000   1.0000   1.0000   1.0000
     1.0000   1.0000   1.0000   1.0000   1.0000   1.0000   1.0000   1.0000
     1.0000   1.0000   1.0008   0.4853   0.4853   0.1641   0.0081   0.0081
     0.0080   0.0080   0.0001   0.0001   0.0001   0.0001   0.0000   0.0000
     0.0000   0.0000

          k = 0.0000 0.0000 0.2500 ( 18353 PWs)   bands (ev):

   -70.5927 -70.5581 -70.5345 -70.5345 -70.5344 -70.5344 -70.5313 -70.5313
   -70.5312 -70.5312 -70.5301 -70.5300 -70.5270 -70.5269 -70.5133 -70.4847
   -36.7700 -36.7700 -36.7672 -36.7672 -36.7672 -36.7672 -36.6825 -36.6738
   -36.6738 -36.6692 -36.6692 -36.6570 -36.6570 -36.6569 -36.6569 -36.6512
   -36.6003 -36.6003 -36.5913 -36.5912 -36.5528 -36.5527 -36.5512 -36.5489
   -36.5489 -36.5488 -36.5488 -36.5455 -36.5455 -36.5454 -36.5454 -36.5304
   -36.5304 -36.5089 -36.5089 -36.5088 -36.5088 -36.5000 -36.5000 -36.4405
   -36.4349 -36.4349 -36.4319 -36.4319 -36.4319 -36.4319 -36.4316 -36.4316
     9.4673  11.6645  12.7829  12.7829  12.7829  12.7829  12.9091  12.9091
    12.9246  12.9253  12.9787  12.9787  12.9787  12.9787  13.3831  13.8735
    14.0631  14.0631  14.1531  14.1531  14.1778  14.1778  14.3365  14.3365
    14.3365  14.3365  14.5216  14.5216  14.5217  14.5217  14.7753  14.7753
    15.2354  15.2354  15.2457  15.2457  15.2458  15.2458  15.2509  15.3202
    15.3796  15.3796  15.8671  15.8671  15.8671  15.8671  15.8926  15.8926
    15.8927  15.8927  15.9263  16.1234  16.1234  16.2298  16.3818  16.3818
    16.3818  16.3818  16.4196  16.4612  16.4612  16.5313  16.5313  16.5488
    16.5489  16.5654  16.5654  16.5726  16.5727  16.7754  16.7754  16.7754
    16.7754  16.8106  16.8565  17.2967  17.2967  17.4544  17.6750  17.6750
    17.6750  17.6750  17.6778  17.6778  17.6778  17.6778  18.0115  18.0115
    18.0115  18.0115

     occupation numbers 
     1.0000   1.0000   1.0000   1.0000   1.0000   1.0000   1.0000   1.0000
     1.0000   1.0000   1.0000   1.0000   1.0000   1.0000   1.0000   1.0000
     1.0000   1.0000   1.0000   1.0000   1.0000   1.0000   1.0000   1.0000
     1.0000   1.0000   1.0000   1.0000   1.0000   1.0000   1.0000   1.0000
     1.0000   1.0000   1.0000   1.0000   1.0000   1.0000   1.0000   1.0000
     1.0000   1.0000   1.0000   1.0000   1.0000   1.0000   1.0000   1.0000
     1.0000   1.0000   1.0000   1.0000   1.0000   1.0000   1.0000   1.0000
     1.0000   1.0000   1.0000   1.0000   1.0000   1.0000   1.0000   1.0000
     1.0000   1.0000   1.0000   1.0000   1.0000   1.0000   1.0000   1.0000
     1.0000   1.0000   1.0000   1.0000   1.0000   1.0000   1.0000   1.0000
     1.0000   1.0000   1.0000   1.0000   1.0000   1.0000   1.0000   1.0000
     1.0000   1.0000   1.0000   1.0000   1.0000   1.0000   1.0000   1.0000
     1.0000   1.0000   1.0000   1.0000   1.0000   1.0000   1.0000   1.0000
     1.0000   1.0000   1.0000   1.0000   1.0000   1.0000   1.0000   1.0000
     1.0000   1.0000   1.0000   1.0000   1.0000   1.0000   1.0000   1.0000
     1.0000   1.0000   1.0000   1.0000   1.0000   1.0000   1.0000   1.0000
     1.0000   1.0000   1.0000   1.0000   1.0000   1.0000   1.0000   1.0000
     1.0000   1.0000   1.0000   1.0533   1.0533   0.3631   0.0017   0.0017
     0.0017   0.0017   0.0016   0.0016   0.0016   0.0016   0.0000   0.0000
     0.0000   0.0000

          k = 0.0000 0.0000 0.3333 ( 18393 PWs)   bands (ev):

   -70.5889 -70.5654 -70.5340 -70.5340 -70.5339 -70.5339 -70.5318 -70.5318
   -70.5317 -70.5317 -70.5296 -70.5295 -70.5274 -70.5273 -70.5069 -70.4876
   -36.7591 -36.7591 -36.7544 -36.7544 -36.7544 -36.7544 -36.6909 -36.6909
   -36.6807 -36.6789 -36.6789 -36.6789 -36.6789 -36.6658 -36.6658 -36.6607
   -36.6160 -36.6160 -36.5857 -36.5856 -36.5585 -36.5584 -36.5484 -36.5484
   -36.5483 -36.5483 -36.5460 -36.5460 -36.5459 -36.5459 -36.5301 -36.5095
   -36.5095 -36.4918 -36.4918 -36.4918 -36.4918 -36.4850 -36.4850 -36.4540
   -36.4450 -36.4450 -36.4398 -36.4398 -36.4398 -36.4398 -36.4388 -36.4388
     9.7065  11.2064  12.8403  12.8403  12.8403  12.8403  13.0020  13.0020
    13.0020  13.0020  13.0152  13.0253  13.0628  13.0628  13.3739  13.6656
    13.8762  13.8762  14.1320  14.1320  14.1607  14.1607  14.4362  14.4362
    14.4362  14.4362  14.5779  14.5779  14.5780  14.5780  14.9830  14.9830
    15.0562  15.0562  15.0562  15.0562  15.2380  15.2380  15.3250  15.3250
    15.3842  15.4637  15.5511  15.5511  15.5511  15.5511  15.7935  15.9790
    15.9790  15.9790  15.9790  16.1258  16.1534  16.1534  16.3145  16.3145
    16.3309  16.3309  16.3309  16.3309  16.4596  16.4790  16.4790  16.5523
    16.5524  16.5538  16.5539  16.5691  16.5692  16.7367  16.9489  16.9636
    16.9636  16.9636  16.9636  17.1265  17.1265  17.3849  17.5769  17.5769
    17.5769  17.5769  17.7420  17.7420  17.7420  17.7420  17.9986  17.9986
    17.9987  17.9987

     occupation numbers 
     1.0000   1.0000   1.0000   1.0000   1.0000   1.0000   1.0000   1.0000
     1.0000   1.0000   1.0000   1.0000   1.0000   1.0000   1.0000   1.0000
     1.0000   1.0000   1.0000   1.0000   1.0000   1.0000   1.0000   1.0000
     1.0000   1.0000   1.0000   1.0000   1.0000   1.0000   1.0000   1.0000
     1.0000   1.0000   1.0000   1.0000   1.0000   1.0000   1.0000   1.0000
     1.0000   1.0000   1.0000   1.0000   1.0000   1.0000   1.0000   1.0000
     1.0000   1.0000   1.0000   1.0000   1.0000   1.0000   1.0000   1.0000
     1.0000   1.0000   1.0000   1.0000   1.0000   1.0000   1.0000   1.0000
     1.0000   1.0000   1.0000   1.0000   1.0000   1.0000   1.0000   1.0000
     1.0000   1.0000   1.0000   1.0000   1.0000   1.0000   1.0000   1.0000
     1.0000   1.0000   1.0000   1.0000   1.0000   1.0000   1.0000   1.0000
     1.0000   1.0000   1.0000   1.0000   1.0000   1.0000   1.0000   1.0000
     1.0000   1.0000   1.0000   1.0000   1.0000   1.0000   1.0000   1.0000
     1.0000   1.0000   1.0000   1.0000   1.0000   1.0000   1.0000   1.0000
     1.0000   1.0000   1.0000   1.0000   1.0000   1.0000   1.0000   1.0000
     1.0000   1.0000   1.0000   1.0000   1.0000   1.0000   1.0000   1.0000
     1.0000   1.0000   1.0000   1.0000   1.0000   1.0000   1.0001   1.0001
     1.0001   1.0001   1.0001   1.0166   1.0166   0.7351   0.0344   0.0344
     0.0344   0.0344   0.0001   0.0001   0.0001   0.0001   0.0000   0.0000
     0.0000   0.0000

          k = 0.0000 0.0000 0.4167 ( 18404 PWs)   bands (ev):

   -70.5842 -70.5723 -70.5335 -70.5335 -70.5334 -70.5334 -70.5323 -70.5323
   -70.5322 -70.5322 -70.5291 -70.5290 -70.5280 -70.5279 -70.5010 -70.4913
   -36.7455 -36.7455 -36.7387 -36.7387 -36.7387 -36.7387 -36.7111 -36.7111
   -36.7003 -36.7003 -36.7003 -36.7003 -36.6779 -36.6682 -36.6559 -36.6559
   -36.6307 -36.6307 -36.5792 -36.5790 -36.5651 -36.5650 -36.5479 -36.5478
   -36.5477 -36.5477 -36.5466 -36.5466 -36.5465 -36.5465 -36.5091 -36.4902
   -36.4902 -36.4761 -36.4761 -36.4761 -36.4761 -36.4711 -36.4711 -36.4703
   -36.4577 -36.4577 -36.4499 -36.4499 -36.4499 -36.4499 -36.4479 -36.4479
    10.0073  10.7672  12.9024  12.9024  12.9024  12.9024  12.9954  12.9954
    12.9954  12.9954  13.1181  13.1514  13.2475  13.2475  13.3132  13.4740
    13.6675  13.6676  14.1259  14.1259  14.1440  14.1440  14.5609  14.5609
    14.5609  14.5609  14.7150  14.7150  14.7151  14.7151  14.8748  14.8748
    14.8748  14.8749  15.2216  15.2216  15.2217  15.2217  15.2243  15.2243
    15.2456  15.2456  15.2863  15.2863  15.4649  15.6609  15.6712  15.8094
    15.8094  15.9948  16.0867  16.0867  16.0867  16.0867  16.2648  16.2648
    16.2648  16.2648  16.4989  16.4989  16.5101  16.5173  16.5173  16.5381
    16.5381  16.5563  16.5564  16.5651  16.5651  16.6450  16.9325  16.9325
    17.0777  17.1434  17.1434  17.1434  17.1434  17.2978  17.4538  17.4538
    17.4539  17.4539  17.8155  17.8155  17.8155  17.8155  17.9548  17.9548
    17.9549  17.9549

     occupation numbers 
     1.0000   1.0000   1.0000   1.0000   1.0000   1.0000   1.0000   1.0000
     1.0000   1.0000   1.0000   1.0000   1.0000   1.0000   1.0000   1.0000
     1.0000   1.0000   1.0000   1.0000   1.0000   1.0000   1.0000   1.0000
     1.0000   1.0000   1.0000   1.0000   1.0000   1.0000   1.0000   1.0000
     1.0000   1.0000   1.0000   1.0000   1.0000   1.0000   1.0000   1.0000
     1.0000   1.0000   1.0000   1.0000   1.0000   1.0000   1.0000   1.0000
     1.0000   1.0000   1.0000   1.0000   1.0000   1.0000   1.0000   1.0000
     1.0000   1.0000   1.0000   1.0000   1.0000   1.0000   1.0000   1.0000
     1.0000   1.0000   1.0000   1.0000   1.0000   1.0000   1.0000   1.0000
[...]
     0.0000   0.0000

          k =-0.5000-0.5000-0.5000 ( 18336 PWs)   bands (ev):

   -67.8726 -67.8726 -67.8726 -67.8726 -67.8726 -67.8726 -67.8726 -67.8725
   -67.8275 -67.8275 -67.8275 -67.8275 -67.8275 -67.8275 -67.8275 -67.8274
   -34.0857 -34.0857 -34.0857 -34.0857 -34.0857 -34.0857 -34.0857 -34.0857
   -34.0857 -34.0857 -34.0857 -34.0857 -34.0857 -34.0857 -34.0857 -34.0857
   -34.0558 -34.0558 -34.0558 -34.0558 -34.0558 -34.0558 -34.0558 -34.0558
   -33.8719 -33.8719 -33.8719 -33.8719 -33.8719 -33.8719 -33.8719 -33.8719
   -33.8404 -33.8404 -33.8404 -33.8404 -33.8404 -33.8404 -33.8404 -33.8404
   -33.8403 -33.8403 -33.8403 -33.8403 -33.8403 -33.8403 -33.8403 -33.8403
    12.6400  12.6400  12.6400  12.6400  12.6400  12.6400  12.6400  12.6400
    15.7432  15.7432  15.7432  15.7432  15.7432  15.7432  15.7432  15.7432
    15.7432  15.7432  15.7432  15.7432  15.7432  15.7432  15.7432  15.7432
    16.1433  16.1434  16.1434  16.1434  16.1434  16.1434  16.1434  16.1434
    16.2595  16.2595  16.2595  16.2595  16.2595  16.2595  16.2595  16.2595
    16.2595  16.2595  16.2595  16.2595  16.2595  16.2596  16.2596  16.2596
    19.1372  19.1372  19.1372  19.1372  19.1372  19.1372  19.1372  19.1372
    19.1372  19.1372  19.1372  19.1372  19.1372  19.1372  19.1372  19.1372
    19.1471  19.1471  19.1471  19.1471  19.1471  19.1471  19.1471  19.1471
    19.1471  19.1471  19.1471  19.1471  19.1471  19.1471  19.1471  19.1471
    19.4840  19.4840  19.4840  19.4840  19.4840  19.4840  19.4840  19.4840
    25.3680  25.3680

     occupation numbers 
     1.0000   1.0000   1.0000   1.0000   1.0000   1.0000   1.0000   1.0000
     1.0000   1.0000   1.0000   1.0000   1.0000   1.0000   1.0000   1.0000
     1.0000   1.0000   1.0000   1.0000   1.0000   1.0000   1.0000   1.0000
     1.0000   1.0000   1.0000   1.0000   1.0000   1.0000   1.0000   1.0000
     1.0000   1.0000   1.0000   1.0000   1.0000   1.0000   1.0000   1.0000
     1.0000   1.0000   1.0000   1.0000   1.0000   1.0000   1.0000   1.0000
     1.0000   1.0000   1.0000   1.0000   1.0000   1.0000   1.0000   1.0000
     1.0000   1.0000   1.0000   1.0000   1.0000   1.0000   1.0000   1.0000
     1.0000   1.0000   1.0000   1.0000   1.0000   1.0000   1.0000   1.0000
     1.0000   1.0000   1.0000   1.0000   1.0000   1.0000   1.0000   1.0000
     1.0000   1.0000   1.0000   1.0000   1.0000   1.0000   1.0000   1.0000
     1.0000   1.0000   1.0000   1.0000   1.0000   1.0000   1.0000   1.0000
     1.0000   1.0000   1.0000   1.0000   1.0000   1.0000   1.0000   1.0000
     1.0000   1.0000   1.0000   1.0000   1.0000   1.0000   1.0000   1.0000
     0.0000   0.0000   0.0000   0.0000   0.0000   0.0000   0.0000   0.0000
     0.0000   0.0000   0.0000   0.0000   0.0000   0.0000   0.0000   0.0000
     0.0000   0.0000   0.0000   0.0000   0.0000   0.0000   0.0000   0.0000
     0.0000   0.0000   0.0000   0.0000   0.0000   0.0000   0.0000   0.0000
     0.0000   0.0000   0.0000   0.0000   0.0000   0.0000   0.0000   0.0000
     0.0000   0.0000

     the Fermi energy is    17.4468 ev

!    total energy              =   -5268.31065053 Ry
     total all-electron energy =    -40729.055179 Ry
     estimated scf accuracy    <          1.6E-09 Ry
     smearing contrib. (-TS)   =       0.00058180 Ry
     internal energy E=F+TS    =   -5268.31123233 Ry

     The total energy is F=E-TS. E is the sum of the following terms:
     one-electron contribution =   -1809.30858988 Ry
     hartree contribution      =    1059.73504552 Ry
     xc contribution           =    -443.78464824 Ry
     ewald contribution        =   -2750.27871050 Ry
     one-center paw contrib.   =   -1324.67432923 Ry
      -> PAW hartree energy AE =     182.92304154 Ry
      -> PAW hartree energy PS =    -181.62539712 Ry
      -> PAW xc energy AE      =    -110.15609171 Ry
      -> PAW xc energy PS      =      26.06630075 Ry
      -> total E_H with PAW    =    1061.03268993 Ry
      -> total E_XC with PAW   =    -527.87443920 Ry

     total magnetization       =    35.48 Bohr mag/cell
     absolute magnetization    =    37.52 Bohr mag/cell

     convergence has been achieved in  27 iterations

     negative rho (up, down):  0.000E+00 7.850E-04

     Forces acting on atoms (cartesian axes, Ry/au):

     atom    1 type  1   force =     0.00000000    0.00000000    0.00000000
     atom    2 type  1   force =    -0.00000615   -0.00000615   -0.00000615
     atom    3 type  1   force =     0.00000000    0.00000000    0.00000000
     atom    4 type  1   force =    -0.00000615   -0.00000615    0.00000615
     atom    5 type  1   force =     0.00000000    0.00000000    0.00000000
     atom    6 type  1   force =    -0.00000615    0.00000615   -0.00000615
     atom    7 type  1   force =     0.00000000    0.00000000    0.00000000
     atom    8 type  1   force =    -0.00000615    0.00000615    0.00000615
     atom    9 type  1   force =     0.00000000    0.00000000    0.00000000
     atom   10 type  1   force =     0.00000615   -0.00000615   -0.00000615
     atom   11 type  1   force =     0.00000000    0.00000000    0.00000000
     atom   12 type  1   force =     0.00000615   -0.00000615    0.00000615
     atom   13 type  1   force =     0.00000000    0.00000000    0.00000000
     atom   14 type  1   force =     0.00000615    0.00000615   -0.00000615
     atom   15 type  1   force =     0.00000000    0.00000000    0.00000000
     atom   16 type  1   force =     0.00000615    0.00000615    0.00000615
     The non-local contrib.  to forces
     atom    1 type  1   force =     0.00000000    0.00000000    0.00000000
     atom    2 type  1   force =     0.00001189    0.00001189    0.00001189
     atom    3 type  1   force =     0.00000000    0.00000000    0.00000000
     atom    4 type  1   force =     0.00001189    0.00001189   -0.00001189
     atom    5 type  1   force =     0.00000000    0.00000000    0.00000000
     atom    6 type  1   force =     0.00001189   -0.00001189    0.00001189
     atom    7 type  1   force =     0.00000000    0.00000000    0.00000000
     atom    8 type  1   force =     0.00001189   -0.00001189   -0.00001189
     atom    9 type  1   force =     0.00000000    0.00000000    0.00000000
     atom   10 type  1   force =    -0.00001189    0.00001189    0.00001189
     atom   11 type  1   force =     0.00000000    0.00000000    0.00000000
     atom   12 type  1   force =    -0.00001189    0.00001189   -0.00001189
     atom   13 type  1   force =     0.00000000    0.00000000    0.00000000
     atom   14 type  1   force =    -0.00001189   -0.00001189    0.00001189
     atom   15 type  1   force =     0.00000000    0.00000000    0.00000000
     atom   16 type  1   force =    -0.00001189   -0.00001189   -0.00001189
     The ionic contribution  to forces
     atom    1 type  1   force =    -0.00000000   -0.00000000   -0.00000000
     atom    2 type  1   force =    -0.00000000   -0.00000000   -0.00000000
     atom    3 type  1   force =     0.00000000   -0.00000000    0.00000000
     atom    4 type  1   force =    -0.00000000   -0.00000000    0.00000000
     atom    5 type  1   force =    -0.00000000    0.00000000   -0.00000000
     atom    6 type  1   force =    -0.00000000    0.00000000   -0.00000000
     atom    7 type  1   force =     0.00000000    0.00000000    0.00000000
     atom    8 type  1   force =    -0.00000000    0.00000000    0.00000000
     atom    9 type  1   force =    -0.00000000   -0.00000000   -0.00000000
     atom   10 type  1   force =     0.00000000   -0.00000000   -0.00000000
     atom   11 type  1   force =    -0.00000000   -0.00000000    0.00000000
     atom   12 type  1   force =     0.00000000   -0.00000000    0.00000000
     atom   13 type  1   force =    -0.00000000    0.00000000   -0.00000000
     atom   14 type  1   force =     0.00000000    0.00000000   -0.00000000
     atom   15 type  1   force =     0.00000000    0.00000000    0.00000000
     atom   16 type  1   force =     0.00000000    0.00000000    0.00000000
     The local contribution  to forces
     atom    1 type  1   force =     0.00000000    0.00000000    0.00000000
     atom    2 type  1   force =     0.00001795    0.00001795    0.00001795
     atom    3 type  1   force =     0.00000000    0.00000000    0.00000000
     atom    4 type  1   force =     0.00001795    0.00001795   -0.00001795
     atom    5 type  1   force =     0.00000000    0.00000000    0.00000000
     atom    6 type  1   force =     0.00001795   -0.00001795    0.00001795
     atom    7 type  1   force =     0.00000000    0.00000000    0.00000000
     atom    8 type  1   force =     0.00001795   -0.00001795   -0.00001795
     atom    9 type  1   force =     0.00000000    0.00000000    0.00000000
     atom   10 type  1   force =    -0.00001795    0.00001795    0.00001795
     atom   11 type  1   force =     0.00000000    0.00000000    0.00000000
     atom   12 type  1   force =    -0.00001795    0.00001795   -0.00001795
     atom   13 type  1   force =     0.00000000    0.00000000    0.00000000
     atom   14 type  1   force =    -0.00001795   -0.00001795    0.00001795
     atom   15 type  1   force =     0.00000000    0.00000000    0.00000000
     atom   16 type  1   force =    -0.00001795   -0.00001795   -0.00001795
     The core correction contribution to forces
     atom    1 type  1   force =     0.00000000    0.00000000    0.00000000
     atom    2 type  1   force =     0.00000020    0.00000020    0.00000020
     atom    3 type  1   force =     0.00000000    0.00000000   -0.00000000
     atom    4 type  1   force =     0.00000020    0.00000020   -0.00000020
     atom    5 type  1   force =     0.00000000   -0.00000000    0.00000000
     atom    6 type  1   force =     0.00000020   -0.00000020    0.00000020
     atom    7 type  1   force =     0.00000000   -0.00000000   -0.00000000
     atom    8 type  1   force =     0.00000020   -0.00000020   -0.00000020
     atom    9 type  1   force =    -0.00000000    0.00000000    0.00000000
     atom   10 type  1   force =    -0.00000020    0.00000020    0.00000020
     atom   11 type  1   force =    -0.00000000    0.00000000   -0.00000000
     atom   12 type  1   force =    -0.00000020    0.00000020   -0.00000020
     atom   13 type  1   force =    -0.00000000   -0.00000000    0.00000000
     atom   14 type  1   force =    -0.00000020   -0.00000020    0.00000020
     atom   15 type  1   force =    -0.00000000   -0.00000000   -0.00000000
     atom   16 type  1   force =    -0.00000020   -0.00000020   -0.00000020
     The Hubbard contrib.    to forces
     atom    1 type  1   force =     0.00000000    0.00000000    0.00000000
     atom    2 type  1   force =     0.00000000    0.00000000    0.00000000
     atom    3 type  1   force =     0.00000000    0.00000000    0.00000000
     atom    4 type  1   force =     0.00000000    0.00000000    0.00000000
     atom    5 type  1   force =     0.00000000    0.00000000    0.00000000
     atom    6 type  1   force =     0.00000000    0.00000000    0.00000000
     atom    7 type  1   force =     0.00000000    0.00000000    0.00000000
     atom    8 type  1   force =     0.00000000    0.00000000    0.00000000
     atom    9 type  1   force =     0.00000000    0.00000000    0.00000000
     atom   10 type  1   force =     0.00000000    0.00000000    0.00000000
     atom   11 type  1   force =     0.00000000    0.00000000    0.00000000
     atom   12 type  1   force =     0.00000000    0.00000000    0.00000000
     atom   13 type  1   force =     0.00000000    0.00000000    0.00000000
     atom   14 type  1   force =     0.00000000    0.00000000    0.00000000
     atom   15 type  1   force =     0.00000000    0.00000000    0.00000000
     atom   16 type  1   force =     0.00000000    0.00000000    0.00000000
     The SCF correction term to forces
     atom    1 type  1   force =     0.00000000    0.00000000    0.00000000
     atom    2 type  1   force =    -0.00003618   -0.00003618   -0.00003618
     atom    3 type  1   force =     0.00000000   -0.00000000   -0.00000000
     atom    4 type  1   force =    -0.00003618   -0.00003618    0.00003618
     atom    5 type  1   force =     0.00000000    0.00000000    0.00000000
     atom    6 type  1   force =    -0.00003618    0.00003618   -0.00003618
     atom    7 type  1   force =     0.00000000    0.00000000   -0.00000000
     atom    8 type  1   force =    -0.00003618    0.00003618    0.00003618
     atom    9 type  1   force =    -0.00000000    0.00000000    0.00000000
     atom   10 type  1   force =     0.00003618   -0.00003618   -0.00003618
     atom   11 type  1   force =     0.00000000    0.00000000   -0.00000000
     atom   12 type  1   force =     0.00003618   -0.00003618    0.00003618
     atom   13 type  1   force =    -0.00000000   -0.00000000    0.00000000
     atom   14 type  1   force =     0.00003618    0.00003618   -0.00003618
     atom   15 type  1   force =    -0.00000000    0.00000000   -0.00000000
     atom   16 type  1   force =     0.00003618    0.00003618    0.00003618

     Total force =     0.000030     Total SCF correction =     0.000177
     SCF correction compared to forces is large: reduce conv_thr to get better values


     Computing stress (Cartesian axis) and pressure


     negative rho (up, down):  0.000E+00 7.850E-04
          total   stress  (Ry/bohr**3)                   (kbar)     P=      -72.30
  -0.00049148   0.00000000   0.00000000          -72.30        0.00        0.00
   0.00000000  -0.00049148   0.00000000            0.00      -72.30        0.00
   0.00000000   0.00000000  -0.00049148            0.00        0.00      -72.30

     kinetic stress (kbar)  95423.78      0.00      0.00
                                0.00  95423.78      0.00
                                0.00      0.00  95423.78

     local   stress (kbar)  12108.12     -0.00     -0.00
                               -0.00  12108.12      0.00
                               -0.00      0.00  12108.12

     nonloc. stress (kbar) -26162.30      0.00      0.00
                                0.00 -26162.30      0.00
                                0.00      0.00 -26162.30

     hartree stress (kbar)  40797.57      0.00      0.00
                                0.00  40797.57     -0.00
                                0.00     -0.00  40797.57

     exc-cor stress (kbar) -13739.70     -0.00     -0.00
                               -0.00 -13739.70     -0.00
                               -0.00     -0.00 -13739.70

     corecor stress (kbar)  -2619.82      0.00     -0.00
                                0.00  -2619.82      0.00
                               -0.00      0.00  -2619.82

     ewald   stress (kbar)-105879.93     -0.00      0.00
                               -0.00-105879.93      0.00
                                0.00      0.00-105879.93

     hubbard stress (kbar)      0.00      0.00      0.00
                                0.00      0.00      0.00
                                0.00      0.00      0.00

     DFT-D   stress (kbar)      0.00      0.00      0.00
                                0.00      0.00      0.00
                                0.00      0.00      0.00

     XDM     stress (kbar)      0.00      0.00      0.00
                                0.00      0.00      0.00
                                0.00      0.00      0.00

     dft-nl  stress (kbar)      0.00      0.00      0.00
                                0.00      0.00      0.00
                                0.00      0.00      0.00

     TS-vdW  stress (kbar)      0.00      0.00      0.00
                                0.00      0.00      0.00
                                0.00      0.00      0.00

     MDB     stress (kbar)      0.00      0.00      0.00
                                0.00      0.00      0.00
                                0.00      0.00      0.00

     3D-RISM stress (kbar)      0.00      0.00      0.00
                                0.00      0.00      0.00
                                0.00      0.00      0.00

     Message from routine punch:
     Nothing written, as per user request (disk_io='none')

     init_run     :     12.57s CPU     13.68s WALL (       1 calls)
     electrons    :    928.50s CPU   1015.11s WALL (       1 calls)
     forces       :      5.27s CPU      5.52s WALL (       1 calls)
     stress       :     83.38s CPU     84.86s WALL (       1 calls)

     Called by init_run:
     wfcinit      :     10.31s CPU     11.19s WALL (       1 calls)
     wfcinit:atom :      0.09s CPU      0.09s WALL (      42 calls)
     wfcinit:wfcr :      9.32s CPU     10.18s WALL (      42 calls)
     potinit      :      1.04s CPU      1.17s WALL (       1 calls)
     hinit0       :      0.89s CPU      0.92s WALL (       1 calls)

     Called by electrons:
     c_bands      :    792.82s CPU    864.11s WALL (      27 calls)
     sum_band     :    116.42s CPU    128.56s WALL (      27 calls)
     v_of_rho     :     10.58s CPU     12.61s WALL (      28 calls)
     v_h          :      0.20s CPU      0.24s WALL (      28 calls)
     v_xc         :     11.11s CPU     13.21s WALL (      30 calls)
     newd         :      2.93s CPU      3.70s WALL (      28 calls)
     PAW_pot      :      5.05s CPU      5.26s WALL (      28 calls)
     mix_rho      :      0.37s CPU      0.47s WALL (      27 calls)

     Called by c_bands:
     init_us_2    :     16.04s CPU     16.28s WALL (    2394 calls)
     cegterg      :    723.48s CPU    786.90s WALL (    1134 calls)

     Called by sum_band:
     sum_band:wei :      0.17s CPU      0.18s WALL (      27 calls)
     sum_band:loo :    110.46s CPU    121.48s WALL (      27 calls)
     sum_band:buf :      1.64s CPU      2.07s WALL (    1134 calls)
     sum_band:ini :      4.43s CPU      4.48s WALL (    1134 calls)
     sum_band:cal :     22.67s CPU     23.47s WALL (    1134 calls)
     sum_band:bec :      0.36s CPU      0.38s WALL (    1134 calls)
     addusdens    :      4.77s CPU      5.60s WALL (      27 calls)
                                        0.00s GPU  (      27 calls)
     addusd:skk   :      0.06s CPU      0.07s WALL (      27 calls)
                                        0.00s GPU  (      27 calls)

     Called by *egterg:
     cdiaghg      :     52.89s CPU     57.52s WALL (    4675 calls)
     cegterg:over :     61.52s CPU     63.11s WALL (    3541 calls)
     cegterg:upda :     43.20s CPU     44.54s WALL (    3541 calls)
     cegterg:last :     84.43s CPU     86.80s WALL (    2108 calls)
     cdiaghg:chol :      3.45s CPU      3.86s WALL (    4675 calls)
     cdiaghg:inve :      0.88s CPU      0.93s WALL (    4675 calls)
     cdiaghg:para :     12.59s CPU     14.51s WALL (    9350 calls)
     h_psi        :    405.01s CPU    451.46s WALL (    4717 calls)
     s_psi        :     50.35s CPU     50.85s WALL (    4717 calls)
     g_psi        :      2.41s CPU      2.48s WALL (    3541 calls)

     Called by h_psi:
     h_psi:calbec :     54.56s CPU     56.36s WALL (    4717 calls)
     vloc_psi     :    294.97s CPU    333.18s WALL (    4717 calls)
     add_vuspsi   :     50.80s CPU     51.25s WALL (    4717 calls)

     General routines
     calbec       :     82.22s CPU     85.05s WALL (    6061 calls)
     fft          :      4.65s CPU      5.56s WALL (     738 calls)
     ffts         :      0.62s CPU      0.65s WALL (     110 calls)
     fftw         :    280.29s CPU    317.47s WALL (  963042 calls)
     interpolate  :      0.84s CPU      0.91s WALL (      56 calls)

     Parallel routines

     PAW routines
     PAW_pot      :      5.05s CPU      5.26s WALL (      28 calls)
     PAW_symme    :      0.04s CPU      0.04s WALL (      55 calls)

     PWSCF        :   1029.82s CPU   1119.47s WALL


   This run was terminated on:  11:37:33  24May2025            

=------------------------------------------------------------------------------=
   JOB DONE.
=------------------------------------------------------------------------------=
