
     Program PWSCF v.7.3.1 starts on 29May2025 at 17:29:48 

     This program is part of the open-source Quantum ESPRESSO suite
     for quantum simulation of materials; please cite
         "P. Giannozzi et al., J. Phys.:Condens. Matter 21 395502 (2009);
         "P. Giannozzi et al., J. Phys.:Condens. Matter 29 465901 (2017);
         "P. Giannozzi et al., J. Chem. Phys. 152 154105 (2020);
          URL http://www.quantum-espresso.org", 
     in publications or presentations arising from this work. More details at
     http://www.quantum-espresso.org/quote

     Parallel version (MPI & OpenMP), running on     128 processor cores
     Number of MPI processes:               128
     Threads/MPI process:                     1

     MPI processes distributed on     1 nodes
     473244 MiB available memory on the printing compute node when the environment starts

     Waiting for input...
     Reading input from standard input

     Current dimensions of program PWSCF are:
     Max number of different atomic species (ntypx) = 10
     Max number of k-points (npk) =  40000
     Max angular momentum in pseudopotentials (lmaxx) =  4
     file Fe.pbe-spn-kjpaw_psl.1.0.0.UPF: wavefunction(s)  3P 3D renormalized
     Message from routine setup:
     using ibrav=0 with symmetry is DISCOURAGED, use correct ibrav instead

     K-points division:     npool     =       8
     R & G space division:  proc/nbgrp/npool/nimage =      16
     Subspace diagonalization in iterative solution of the eigenvalue problem:
     one sub-group per band group will be used
     ELPA distributed-memory algorithm (size of sub-group:  4*  4 procs)


     Parallelization info
     --------------------
     sticks:   dense  smooth     PW     G-vecs:    dense   smooth      PW
     Min        1420     473    126               161001    30976    4292
     Max        1422     475    127               161002    30980    4295
     Sum       22725    7589   2025              2576031   495639   68699

     Using Slab Decomposition



     bravais-lattice index     =            0
     lattice parameter (alat)  =      16.2598  a.u.
     unit-cell volume          =    4298.7603 (a.u.)^3
     number of atoms/cell      =           53
     number of atomic types    =            1
     number of electrons       =       848.00
     number of Kohn-Sham states=          509
     kinetic-energy cutoff     =      90.0000  Ry
     charge density cutoff     =    1080.0000  Ry
     scf convergence threshold =      1.0E-08
     mixing beta               =       0.2000
     number of iterations used =            8  plain     mixing
     Exchange-correlation= SLA  PW   PBX  PBC
                           (   1   4   3   4   0   0   0)

     celldm(1)=  16.259770  celldm(2)=   0.000000  celldm(3)=   0.000000
     celldm(4)=   0.000000  celldm(5)=   0.000000  celldm(6)=   0.000000

     crystal axes: (cart. coord. in units of alat)
               a(1) = (   1.000000   0.000000   0.000000 )  
               a(2) = (   0.000000   1.000000   0.000000 )  
               a(3) = (   0.000000   0.000000   1.000000 )  

     reciprocal axes: (cart. coord. in units 2 pi/alat)
               b(1) = (  1.000000  0.000000  0.000000 )  
               b(2) = (  0.000000  1.000000  0.000000 )  
               b(3) = (  0.000000  0.000000  1.000000 )  


     PseudoPot. # 1 for Fe read from file:
     ./pseudo/Fe.pbe-spn-kjpaw_psl.1.0.0.UPF
     MD5 check sum: fc81f059e5c5069939230b1155715ae8
     Pseudo is Projector augmented-wave + core cor, Zval = 16.0
     Generated using &quot;atomic&quot; code by A. Dal Corso  v.6.3
     Shape of augmentation charge: PSQ
     Using radial grid of 1191 points,  6 beta functions with: 
                l(1) =   0
                l(2) =   0
                l(3) =   1
                l(4) =   1
                l(5) =   2
                l(6) =   2
     Q(r) pseudized with 0 coefficients 


     atomic species   valence    mass     pseudopotential
     Fe               16.00    55.84500     Fe( 1.00)

     48 Sym. Ops., with inversion, found (42 have fractional translation)


                                    s                        frac. trans.

      isym =  1     identity                                     

 cryst.   s( 1) = (     1          0          0      )
                  (     0          1          0      )
                  (     0          0          1      )

 cart.    s( 1) = (  1.0000000  0.0000000  0.0000000 )
                  (  0.0000000  1.0000000  0.0000000 )
                  (  0.0000000  0.0000000  1.0000000 )


      isym =  2     180 deg rotation - cart. axis [0,0,1]        

 cryst.   s( 2) = (    -1          0          0      )    f =(  0.3333333 )
                  (     0         -1          0      )       (  0.3333333 )
                  (     0          0          1      )       (  0.0000000 )

 cart.    s( 2) = ( -1.0000000  0.0000000  0.0000000 )    f =(  0.3333333 )
                  (  0.0000000 -1.0000000  0.0000000 )       (  0.3333333 )
                  (  0.0000000  0.0000000  1.0000000 )       (  0.0000000 )


      isym =  3     180 deg rotation - cart. axis [0,1,0]        

 cryst.   s( 3) = (    -1          0          0      )    f =(  0.3333333 )
                  (     0          1          0      )       (  0.0000000 )
                  (     0          0         -1      )       (  0.3333333 )

 cart.    s( 3) = ( -1.0000000  0.0000000  0.0000000 )    f =(  0.3333333 )
                  (  0.0000000  1.0000000  0.0000000 )       (  0.0000000 )
                  (  0.0000000  0.0000000 -1.0000000 )       (  0.3333333 )


      isym =  4     180 deg rotation - cart. axis [1,0,0]        

 cryst.   s( 4) = (     1          0          0      )    f =(  0.0000000 )
                  (     0         -1          0      )       (  0.3333333 )
                  (     0          0         -1      )       (  0.3333333 )

 cart.    s( 4) = (  1.0000000  0.0000000  0.0000000 )    f =(  0.0000000 )
                  (  0.0000000 -1.0000000  0.0000000 )       (  0.3333333 )
                  (  0.0000000  0.0000000 -1.0000000 )       (  0.3333333 )


      isym =  5     180 deg rotation - cart. axis [1,1,0]        

 cryst.   s( 5) = (     0          1          0      )    f =(  0.0000000 )
                  (     1          0          0      )       (  0.0000000 )
                  (     0          0         -1      )       (  0.3333333 )

 cart.    s( 5) = (  0.0000000  1.0000000  0.0000000 )    f =(  0.0000000 )
                  (  1.0000000  0.0000000  0.0000000 )       (  0.0000000 )
                  (  0.0000000  0.0000000 -1.0000000 )       (  0.3333333 )


      isym =  6     180 deg rotation - cart. axis [1,-1,0]       

 cryst.   s( 6) = (     0         -1          0      )    f =(  0.3333333 )
                  (    -1          0          0      )       (  0.3333333 )
                  (     0          0         -1      )       (  0.3333333 )

 cart.    s( 6) = (  0.0000000 -1.0000000  0.0000000 )    f =(  0.3333333 )
                  ( -1.0000000  0.0000000  0.0000000 )       (  0.3333333 )
                  (  0.0000000  0.0000000 -1.0000000 )       (  0.3333333 )


      isym =  7      90 deg rotation - cart. axis [0,0,-1]       

 cryst.   s( 7) = (     0         -1          0      )    f =(  0.0000000 )
                  (     1          0          0      )       (  0.3333333 )
                  (     0          0          1      )       (  0.0000000 )

 cart.    s( 7) = (  0.0000000  1.0000000  0.0000000 )    f =(  0.0000000 )
                  ( -1.0000000  0.0000000  0.0000000 )       (  0.3333333 )
                  (  0.0000000  0.0000000  1.0000000 )       (  0.0000000 )


      isym =  8      90 deg rotation - cart. axis [0,0,1]        

 cryst.   s( 8) = (     0          1          0      )    f =(  0.3333333 )
                  (    -1          0          0      )       (  0.0000000 )
                  (     0          0          1      )       (  0.0000000 )

 cart.    s( 8) = (  0.0000000 -1.0000000  0.0000000 )    f =(  0.3333333 )
                  (  1.0000000  0.0000000  0.0000000 )       (  0.0000000 )
                  (  0.0000000  0.0000000  1.0000000 )       (  0.0000000 )


      isym =  9     180 deg rotation - cart. axis [1,0,1]        

 cryst.   s( 9) = (     0          0          1      )    f =(  0.0000000 )
                  (     0         -1          0      )       (  0.3333333 )
                  (     1          0          0      )       (  0.0000000 )

 cart.    s( 9) = (  0.0000000  0.0000000  1.0000000 )    f =(  0.0000000 )
                  (  0.0000000 -1.0000000  0.0000000 )       (  0.3333333 )
                  (  1.0000000  0.0000000  0.0000000 )       (  0.0000000 )


      isym = 10     180 deg rotation - cart. axis [-1,0,1]       

 cryst.   s(10) = (     0          0         -1      )    f =(  0.3333333 )
                  (     0         -1          0      )       (  0.3333333 )
                  (    -1          0          0      )       (  0.3333333 )

 cart.    s(10) = (  0.0000000  0.0000000 -1.0000000 )    f =(  0.3333333 )
                  (  0.0000000 -1.0000000  0.0000000 )       (  0.3333333 )
                  ( -1.0000000  0.0000000  0.0000000 )       (  0.3333333 )


      isym = 11      90 deg rotation - cart. axis [0,1,0]        

 cryst.   s(11) = (     0          0         -1      )    f =(  0.0000000 )
                  (     0          1          0      )       (  0.0000000 )
                  (     1          0          0      )       (  0.3333333 )

 cart.    s(11) = (  0.0000000  0.0000000  1.0000000 )    f =(  0.0000000 )
                  (  0.0000000  1.0000000  0.0000000 )       (  0.0000000 )
                  ( -1.0000000  0.0000000  0.0000000 )       (  0.3333333 )


      isym = 12      90 deg rotation - cart. axis [0,-1,0]       

 cryst.   s(12) = (     0          0          1      )    f =(  0.3333333 )
                  (     0          1          0      )       (  0.0000000 )
                  (    -1          0          0      )       (  0.0000000 )

 cart.    s(12) = (  0.0000000  0.0000000 -1.0000000 )    f =(  0.3333333 )
                  (  0.0000000  1.0000000  0.0000000 )       (  0.0000000 )
                  (  1.0000000  0.0000000  0.0000000 )       (  0.0000000 )


      isym = 13     180 deg rotation - cart. axis [0,1,1]        

 cryst.   s(13) = (    -1          0          0      )    f =(  0.3333333 )
                  (     0          0          1      )       (  0.0000000 )
                  (     0          1          0      )       (  0.0000000 )

 cart.    s(13) = ( -1.0000000  0.0000000  0.0000000 )    f =(  0.3333333 )
                  (  0.0000000  0.0000000  1.0000000 )       (  0.0000000 )
                  (  0.0000000  1.0000000  0.0000000 )       (  0.0000000 )


      isym = 14     180 deg rotation - cart. axis [0,1,-1]       

 cryst.   s(14) = (    -1          0          0      )    f =(  0.3333333 )
                  (     0          0         -1      )       (  0.3333333 )
                  (     0         -1          0      )       (  0.3333333 )

 cart.    s(14) = ( -1.0000000  0.0000000  0.0000000 )    f =(  0.3333333 )
                  (  0.0000000  0.0000000 -1.0000000 )       (  0.3333333 )
                  (  0.0000000 -1.0000000  0.0000000 )       (  0.3333333 )


      isym = 15      90 deg rotation - cart. axis [-1,0,0]       

 cryst.   s(15) = (     1          0          0      )    f =(  0.0000000 )
                  (     0          0         -1      )       (  0.0000000 )
                  (     0          1          0      )       (  0.3333333 )

 cart.    s(15) = (  1.0000000  0.0000000  0.0000000 )    f =(  0.0000000 )
                  (  0.0000000  0.0000000  1.0000000 )       (  0.0000000 )
                  (  0.0000000 -1.0000000  0.0000000 )       (  0.3333333 )


      isym = 16      90 deg rotation - cart. axis [1,0,0]        

 cryst.   s(16) = (     1          0          0      )    f =(  0.0000000 )
                  (     0          0          1      )       (  0.3333333 )
                  (     0         -1          0      )       (  0.0000000 )

 cart.    s(16) = (  1.0000000  0.0000000  0.0000000 )    f =(  0.0000000 )
                  (  0.0000000  0.0000000 -1.0000000 )       (  0.3333333 )
                  (  0.0000000  1.0000000  0.0000000 )       (  0.0000000 )


      isym = 17     120 deg rotation - cart. axis [-1,-1,-1]     

 cryst.   s(17) = (     0          0          1      )
                  (     1          0          0      )
                  (     0          1          0      )

 cart.    s(17) = (  0.0000000  1.0000000  0.0000000 )
                  (  0.0000000  0.0000000  1.0000000 )
                  (  1.0000000  0.0000000  0.0000000 )


      isym = 18     120 deg rotation - cart. axis [-1,1,1]       

 cryst.   s(18) = (     0          0         -1      )    f =(  0.3333333 )
                  (    -1          0          0      )       (  0.0000000 )
                  (     0          1          0      )       (  0.3333333 )

 cart.    s(18) = (  0.0000000 -1.0000000  0.0000000 )    f =(  0.3333333 )
                  (  0.0000000  0.0000000  1.0000000 )       (  0.0000000 )
                  ( -1.0000000  0.0000000  0.0000000 )       (  0.3333333 )


      isym = 19     120 deg rotation - cart. axis [1,1,-1]       

 cryst.   s(19) = (     0          0         -1      )    f =(  0.0000000 )
                  (     1          0          0      )       (  0.3333333 )
                  (     0         -1          0      )       (  0.3333333 )

 cart.    s(19) = (  0.0000000  1.0000000  0.0000000 )    f =(  0.0000000 )
                  (  0.0000000  0.0000000 -1.0000000 )       (  0.3333333 )
                  ( -1.0000000  0.0000000  0.0000000 )       (  0.3333333 )


      isym = 20     120 deg rotation - cart. axis [1,-1,1]       

 cryst.   s(20) = (     0          0          1      )    f =(  0.3333333 )
                  (    -1          0          0      )       (  0.3333333 )
                  (     0         -1          0      )       (  0.0000000 )

 cart.    s(20) = (  0.0000000 -1.0000000  0.0000000 )    f =(  0.3333333 )
                  (  0.0000000  0.0000000 -1.0000000 )       (  0.3333333 )
                  (  1.0000000  0.0000000  0.0000000 )       (  0.0000000 )


      isym = 21     120 deg rotation - cart. axis [1,1,1]        

 cryst.   s(21) = (     0          1          0      )
                  (     0          0          1      )
                  (     1          0          0      )

 cart.    s(21) = (  0.0000000  0.0000000  1.0000000 )
                  (  1.0000000  0.0000000  0.0000000 )
                  (  0.0000000  1.0000000  0.0000000 )


      isym = 22     120 deg rotation - cart. axis [-1,1,-1]      

 cryst.   s(22) = (     0         -1          0      )    f =(  0.0000000 )
                  (     0          0         -1      )       (  0.3333333 )
                  (     1          0          0      )       (  0.3333333 )

 cart.    s(22) = (  0.0000000  0.0000000  1.0000000 )    f =(  0.0000000 )
                  ( -1.0000000  0.0000000  0.0000000 )       (  0.3333333 )
                  (  0.0000000 -1.0000000  0.0000000 )       (  0.3333333 )


      isym = 23     120 deg rotation - cart. axis [1,-1,-1]      

 cryst.   s(23) = (     0         -1          0      )    f =(  0.3333333 )
                  (     0          0          1      )       (  0.3333333 )
                  (    -1          0          0      )       (  0.0000000 )

 cart.    s(23) = (  0.0000000  0.0000000 -1.0000000 )    f =(  0.3333333 )
                  ( -1.0000000  0.0000000  0.0000000 )       (  0.3333333 )
                  (  0.0000000  1.0000000  0.0000000 )       (  0.0000000 )


      isym = 24     120 deg rotation - cart. axis [-1,-1,1]      

 cryst.   s(24) = (     0          1          0      )    f =(  0.3333333 )
                  (     0          0         -1      )       (  0.0000000 )
                  (    -1          0          0      )       (  0.3333333 )

 cart.    s(24) = (  0.0000000  0.0000000 -1.0000000 )    f =(  0.3333333 )
                  (  1.0000000  0.0000000  0.0000000 )       (  0.0000000 )
                  (  0.0000000 -1.0000000  0.0000000 )       (  0.3333333 )


      isym = 25     inversion                                    

 cryst.   s(25) = (    -1          0          0      )    f =(  0.3333333 )
                  (     0         -1          0      )       (  0.3333333 )
                  (     0          0         -1      )       (  0.3333333 )

 cart.    s(25) = ( -1.0000000  0.0000000  0.0000000 )    f =(  0.3333333 )
                  (  0.0000000 -1.0000000  0.0000000 )       (  0.3333333 )
                  (  0.0000000  0.0000000 -1.0000000 )       (  0.3333333 )


      isym = 26     inv. 180 deg rotation - cart. axis [0,0,1]   

 cryst.   s(26) = (     1          0          0      )    f =(  0.0000000 )
                  (     0          1          0      )       (  0.0000000 )
                  (     0          0         -1      )       (  0.3333333 )

 cart.    s(26) = (  1.0000000  0.0000000  0.0000000 )    f =(  0.0000000 )
                  (  0.0000000  1.0000000  0.0000000 )       (  0.0000000 )
                  (  0.0000000  0.0000000 -1.0000000 )       (  0.3333333 )


      isym = 27     inv. 180 deg rotation - cart. axis [0,1,0]   

 cryst.   s(27) = (     1          0          0      )    f =(  0.0000000 )
                  (     0         -1          0      )       (  0.3333333 )
                  (     0          0          1      )       (  0.0000000 )

 cart.    s(27) = (  1.0000000  0.0000000  0.0000000 )    f =(  0.0000000 )
                  (  0.0000000 -1.0000000  0.0000000 )       (  0.3333333 )
                  (  0.0000000  0.0000000  1.0000000 )       (  0.0000000 )


      isym = 28     inv. 180 deg rotation - cart. axis [1,0,0]   

 cryst.   s(28) = (    -1          0          0      )    f =(  0.3333333 )
                  (     0          1          0      )       (  0.0000000 )
                  (     0          0          1      )       (  0.0000000 )

 cart.    s(28) = ( -1.0000000  0.0000000  0.0000000 )    f =(  0.3333333 )
                  (  0.0000000  1.0000000  0.0000000 )       (  0.0000000 )
                  (  0.0000000  0.0000000  1.0000000 )       (  0.0000000 )


      isym = 29     inv. 180 deg rotation - cart. axis [1,1,0]   

 cryst.   s(29) = (     0         -1          0      )    f =(  0.3333333 )
                  (    -1          0          0      )       (  0.3333333 )
                  (     0          0          1      )       (  0.0000000 )

 cart.    s(29) = (  0.0000000 -1.0000000  0.0000000 )    f =(  0.3333333 )
                  ( -1.0000000  0.0000000  0.0000000 )       (  0.3333333 )
                  (  0.0000000  0.0000000  1.0000000 )       (  0.0000000 )


      isym = 30     inv. 180 deg rotation - cart. axis [1,-1,0]  

 cryst.   s(30) = (     0          1          0      )
                  (     1          0          0      )
                  (     0          0          1      )

 cart.    s(30) = (  0.0000000  1.0000000  0.0000000 )
                  (  1.0000000  0.0000000  0.0000000 )
                  (  0.0000000  0.0000000  1.0000000 )


      isym = 31     inv.  90 deg rotation - cart. axis [0,0,-1]  

 cryst.   s(31) = (     0          1          0      )    f =(  0.3333333 )
                  (    -1          0          0      )       (  0.0000000 )
                  (     0          0         -1      )       (  0.3333333 )

 cart.    s(31) = (  0.0000000 -1.0000000  0.0000000 )    f =(  0.3333333 )
                  (  1.0000000  0.0000000  0.0000000 )       (  0.0000000 )
                  (  0.0000000  0.0000000 -1.0000000 )       (  0.3333333 )


      isym = 32     inv.  90 deg rotation - cart. axis [0,0,1]   

 cryst.   s(32) = (     0         -1          0      )    f =(  0.0000000 )
                  (     1          0          0      )       (  0.3333333 )
                  (     0          0         -1      )       (  0.3333333 )

 cart.    s(32) = (  0.0000000  1.0000000  0.0000000 )    f =(  0.0000000 )
                  ( -1.0000000  0.0000000  0.0000000 )       (  0.3333333 )
                  (  0.0000000  0.0000000 -1.0000000 )       (  0.3333333 )


      isym = 33     inv. 180 deg rotation - cart. axis [1,0,1]   

 cryst.   s(33) = (     0          0         -1      )    f =(  0.3333333 )
                  (     0          1          0      )       (  0.0000000 )
                  (    -1          0          0      )       (  0.3333333 )

 cart.    s(33) = (  0.0000000  0.0000000 -1.0000000 )    f =(  0.3333333 )
                  (  0.0000000  1.0000000  0.0000000 )       (  0.0000000 )
                  ( -1.0000000  0.0000000  0.0000000 )       (  0.3333333 )


      isym = 34     inv. 180 deg rotation - cart. axis [-1,0,1]  

 cryst.   s(34) = (     0          0          1      )
                  (     0          1          0      )
                  (     1          0          0      )

 cart.    s(34) = (  0.0000000  0.0000000  1.0000000 )
                  (  0.0000000  1.0000000  0.0000000 )
                  (  1.0000000  0.0000000  0.0000000 )


      isym = 35     inv.  90 deg rotation - cart. axis [0,1,0]   

 cryst.   s(35) = (     0          0          1      )    f =(  0.3333333 )
                  (     0         -1          0      )       (  0.3333333 )
                  (    -1          0          0      )       (  0.0000000 )

 cart.    s(35) = (  0.0000000  0.0000000 -1.0000000 )    f =(  0.3333333 )
                  (  0.0000000 -1.0000000  0.0000000 )       (  0.3333333 )
                  (  1.0000000  0.0000000  0.0000000 )       (  0.0000000 )


      isym = 36     inv.  90 deg rotation - cart. axis [0,-1,0]  

 cryst.   s(36) = (     0          0         -1      )    f =(  0.0000000 )
                  (     0         -1          0      )       (  0.3333333 )
                  (     1          0          0      )       (  0.3333333 )

 cart.    s(36) = (  0.0000000  0.0000000  1.0000000 )    f =(  0.0000000 )
                  (  0.0000000 -1.0000000  0.0000000 )       (  0.3333333 )
                  ( -1.0000000  0.0000000  0.0000000 )       (  0.3333333 )


      isym = 37     inv. 180 deg rotation - cart. axis [0,1,1]   

 cryst.   s(37) = (     1          0          0      )    f =(  0.0000000 )
                  (     0          0         -1      )       (  0.3333333 )
                  (     0         -1          0      )       (  0.3333333 )

 cart.    s(37) = (  1.0000000  0.0000000  0.0000000 )    f =(  0.0000000 )
                  (  0.0000000  0.0000000 -1.0000000 )       (  0.3333333 )
                  (  0.0000000 -1.0000000  0.0000000 )       (  0.3333333 )


      isym = 38     inv. 180 deg rotation - cart. axis [0,1,-1]  

 cryst.   s(38) = (     1          0          0      )
                  (     0          0          1      )
                  (     0          1          0      )

 cart.    s(38) = (  1.0000000  0.0000000  0.0000000 )
                  (  0.0000000  0.0000000  1.0000000 )
                  (  0.0000000  1.0000000  0.0000000 )


      isym = 39     inv.  90 deg rotation - cart. axis [-1,0,0]  

 cryst.   s(39) = (    -1          0          0      )    f =(  0.3333333 )
                  (     0          0          1      )       (  0.3333333 )
                  (     0         -1          0      )       (  0.0000000 )

 cart.    s(39) = ( -1.0000000  0.0000000  0.0000000 )    f =(  0.3333333 )
                  (  0.0000000  0.0000000 -1.0000000 )       (  0.3333333 )
                  (  0.0000000  1.0000000  0.0000000 )       (  0.0000000 )


      isym = 40     inv.  90 deg rotation - cart. axis [1,0,0]   

 cryst.   s(40) = (    -1          0          0      )    f =(  0.3333333 )
                  (     0          0         -1      )       (  0.0000000 )
                  (     0          1          0      )       (  0.3333333 )

 cart.    s(40) = ( -1.0000000  0.0000000  0.0000000 )    f =(  0.3333333 )
                  (  0.0000000  0.0000000  1.0000000 )       (  0.0000000 )
                  (  0.0000000 -1.0000000  0.0000000 )       (  0.3333333 )


      isym = 41     inv. 120 deg rotation - cart. axis [-1,-1,-1]

 cryst.   s(41) = (     0          0         -1      )    f =(  0.3333333 )
                  (    -1          0          0      )       (  0.3333333 )
                  (     0         -1          0      )       (  0.3333333 )

 cart.    s(41) = (  0.0000000 -1.0000000  0.0000000 )    f =(  0.3333333 )
                  (  0.0000000  0.0000000 -1.0000000 )       (  0.3333333 )
                  ( -1.0000000  0.0000000  0.0000000 )       (  0.3333333 )


      isym = 42     inv. 120 deg rotation - cart. axis [-1,1,1]  

 cryst.   s(42) = (     0          0          1      )    f =(  0.0000000 )
                  (     1          0          0      )       (  0.3333333 )
                  (     0         -1          0      )       (  0.0000000 )

 cart.    s(42) = (  0.0000000  1.0000000  0.0000000 )    f =(  0.0000000 )
                  (  0.0000000  0.0000000 -1.0000000 )       (  0.3333333 )
                  (  1.0000000  0.0000000  0.0000000 )       (  0.0000000 )


      isym = 43     inv. 120 deg rotation - cart. axis [1,1,-1]  

 cryst.   s(43) = (     0          0          1      )    f =(  0.3333333 )
                  (    -1          0          0      )       (  0.0000000 )
                  (     0          1          0      )       (  0.0000000 )

 cart.    s(43) = (  0.0000000 -1.0000000  0.0000000 )    f =(  0.3333333 )
                  (  0.0000000  0.0000000  1.0000000 )       (  0.0000000 )
                  (  1.0000000  0.0000000  0.0000000 )       (  0.0000000 )


      isym = 44     inv. 120 deg rotation - cart. axis [1,-1,1]  

 cryst.   s(44) = (     0          0         -1      )    f =(  0.0000000 )
                  (     1          0          0      )       (  0.0000000 )
                  (     0          1          0      )       (  0.3333333 )

 cart.    s(44) = (  0.0000000  1.0000000  0.0000000 )    f =(  0.0000000 )
                  (  0.0000000  0.0000000  1.0000000 )       (  0.0000000 )
                  ( -1.0000000  0.0000000  0.0000000 )       (  0.3333333 )


      isym = 45     inv. 120 deg rotation - cart. axis [1,1,1]   

 cryst.   s(45) = (     0         -1          0      )    f =(  0.3333333 )
                  (     0          0         -1      )       (  0.3333333 )
                  (    -1          0          0      )       (  0.3333333 )

 cart.    s(45) = (  0.0000000  0.0000000 -1.0000000 )    f =(  0.3333333 )
                  ( -1.0000000  0.0000000  0.0000000 )       (  0.3333333 )
                  (  0.0000000 -1.0000000  0.0000000 )       (  0.3333333 )


      isym = 46     inv. 120 deg rotation - cart. axis [-1,1,-1] 

 cryst.   s(46) = (     0          1          0      )    f =(  0.3333333 )
                  (     0          0          1      )       (  0.0000000 )
                  (    -1          0          0      )       (  0.0000000 )

 cart.    s(46) = (  0.0000000  0.0000000 -1.0000000 )    f =(  0.3333333 )
                  (  1.0000000  0.0000000  0.0000000 )       (  0.0000000 )
                  (  0.0000000  1.0000000  0.0000000 )       (  0.0000000 )


      isym = 47     inv. 120 deg rotation - cart. axis [1,-1,-1] 

 cryst.   s(47) = (     0          1          0      )    f =(  0.0000000 )
                  (     0          0         -1      )       (  0.0000000 )
                  (     1          0          0      )       (  0.3333333 )

 cart.    s(47) = (  0.0000000  0.0000000  1.0000000 )    f =(  0.0000000 )
                  (  1.0000000  0.0000000  0.0000000 )       (  0.0000000 )
                  (  0.0000000 -1.0000000  0.0000000 )       (  0.3333333 )


      isym = 48     inv. 120 deg rotation - cart. axis [-1,-1,1] 

 cryst.   s(48) = (     0         -1          0      )    f =(  0.0000000 )
                  (     0          0          1      )       (  0.3333333 )
                  (     1          0          0      )       (  0.0000000 )

 cart.    s(48) = (  0.0000000  0.0000000  1.0000000 )    f =(  0.0000000 )
                  ( -1.0000000  0.0000000  0.0000000 )       (  0.3333333 )
                  (  0.0000000  1.0000000  0.0000000 )       (  0.0000000 )


   Cartesian axes

     site n.     atom                  positions (alat units)
         1        Fe     tau(   1) = (   0.0293058   0.0293058   0.0293058  )
         2        Fe     tau(   2) = (   0.1963355   0.1963355   0.1963355  )
         3        Fe     tau(   3) = (   0.0230198   0.0230198   0.3333333  )
         4        Fe     tau(   4) = (   0.1963355   0.1963355   0.4703312  )
         5        Fe     tau(   5) = (   0.0293058   0.0293058   0.6373609  )
         6        Fe     tau(   6) = (   0.1506990   0.1506990   0.8333333  )
         7        Fe     tau(   7) = (   0.0230198   0.3333333   0.0230198  )
         8        Fe     tau(   8) = (   0.1963355   0.4703312   0.1963355  )
         9        Fe     tau(   9) = (  -0.0127100   0.3333333   0.3333333  )
        10        Fe     tau(  10) = (   0.1963355   0.4703312   0.4703312  )
        11        Fe     tau(  11) = (   0.0230198   0.3333333   0.6436469  )
        12        Fe     tau(  12) = (   0.1506990   0.5159676   0.8333333  )
        13        Fe     tau(  13) = (   0.0293058   0.6373609   0.0293058  )
        14        Fe     tau(  14) = (   0.1506990   0.8333333   0.1506990  )
        15        Fe     tau(  15) = (   0.0230198   0.6436469   0.3333333  )
        16        Fe     tau(  16) = (   0.1506990   0.8333333   0.5159676  )
        17        Fe     tau(  17) = (   0.0293058   0.6373609   0.6373609  )
        18        Fe     tau(  18) = (   0.1580149   0.8333333   0.8333333  )
        19        Fe     tau(  19) = (   0.3333333   0.0230198   0.0230198  )
        20        Fe     tau(  20) = (   0.4703312   0.1963355   0.1963355  )
        21        Fe     tau(  21) = (   0.3333333  -0.0127100   0.3333333  )
        22        Fe     tau(  22) = (   0.4703312   0.1963355   0.4703312  )
        23        Fe     tau(  23) = (   0.3333333   0.0230198   0.6436469  )
        24        Fe     tau(  24) = (   0.5159676   0.1506990   0.8333333  )
        25        Fe     tau(  25) = (   0.3333333   0.3333333  -0.0127100  )
        26        Fe     tau(  26) = (   0.4703312   0.4703312   0.1963355  )
        27        Fe     tau(  27) = (   0.4703312   0.4703312   0.4703312  )
        28        Fe     tau(  28) = (   0.3333333   0.3333333   0.6793766  )
        29        Fe     tau(  29) = (   0.5159676   0.5159676   0.8333333  )
        30        Fe     tau(  30) = (   0.3333333   0.6436469   0.0230198  )
        31        Fe     tau(  31) = (   0.5159676   0.8333333   0.1506990  )
        32        Fe     tau(  32) = (   0.3333333   0.6793766   0.3333333  )
        33        Fe     tau(  33) = (   0.5159676   0.8333333   0.5159676  )
        34        Fe     tau(  34) = (   0.3333333   0.6436469   0.6436469  )
        35        Fe     tau(  35) = (   0.5086518   0.8333333   0.8333333  )
        36        Fe     tau(  36) = (   0.6373609   0.0293058   0.0293058  )
        37        Fe     tau(  37) = (   0.8333333   0.1506990   0.1506990  )
        38        Fe     tau(  38) = (   0.6436469   0.0230198   0.3333333  )
        39        Fe     tau(  39) = (   0.8333333   0.1506990   0.5159676  )
        40        Fe     tau(  40) = (   0.6373609   0.0293058   0.6373609  )
        41        Fe     tau(  41) = (   0.8333333   0.1580149   0.8333333  )
        42        Fe     tau(  42) = (   0.6436469   0.3333333   0.0230198  )
        43        Fe     tau(  43) = (   0.8333333   0.5159676   0.1506990  )
        44        Fe     tau(  44) = (   0.6793766   0.3333333   0.3333333  )
        45        Fe     tau(  45) = (   0.8333333   0.5159676   0.5159676  )
        46        Fe     tau(  46) = (   0.6436469   0.3333333   0.6436469  )
        47        Fe     tau(  47) = (   0.8333333   0.5086518   0.8333333  )
        48        Fe     tau(  48) = (   0.6373609   0.6373609   0.0293058  )
        49        Fe     tau(  49) = (   0.8333333   0.8333333   0.1580149  )
        50        Fe     tau(  50) = (   0.6436469   0.6436469   0.3333333  )
        51        Fe     tau(  51) = (   0.8333333   0.8333333   0.5086518  )
        52        Fe     tau(  52) = (   0.6373609   0.6373609   0.6373609  )
        53        Fe     tau(  53) = (   0.8333333   0.8333333   0.8333333  )

   Crystallographic axes

     site n.     atom                  positions (cryst. coord.)
         1        Fe     tau(   1) = (  0.0293058  0.0293058  0.0293058  )
         2        Fe     tau(   2) = (  0.1963355  0.1963355  0.1963355  )
         3        Fe     tau(   3) = (  0.0230198  0.0230198  0.3333333  )
         4        Fe     tau(   4) = (  0.1963355  0.1963355  0.4703312  )
         5        Fe     tau(   5) = (  0.0293058  0.0293058  0.6373609  )
         6        Fe     tau(   6) = (  0.1506990  0.1506990  0.8333333  )
         7        Fe     tau(   7) = (  0.0230198  0.3333333  0.0230198  )
         8        Fe     tau(   8) = (  0.1963355  0.4703312  0.1963355  )
         9        Fe     tau(   9) = ( -0.0127100  0.3333333  0.3333333  )
        10        Fe     tau(  10) = (  0.1963355  0.4703312  0.4703312  )
        11        Fe     tau(  11) = (  0.0230198  0.3333333  0.6436469  )
        12        Fe     tau(  12) = (  0.1506990  0.5159676  0.8333333  )
        13        Fe     tau(  13) = (  0.0293058  0.6373609  0.0293058  )
        14        Fe     tau(  14) = (  0.1506990  0.8333333  0.1506990  )
        15        Fe     tau(  15) = (  0.0230198  0.6436469  0.3333333  )
        16        Fe     tau(  16) = (  0.1506990  0.8333333  0.5159676  )
        17        Fe     tau(  17) = (  0.0293058  0.6373609  0.6373609  )
        18        Fe     tau(  18) = (  0.1580149  0.8333333  0.8333333  )
        19        Fe     tau(  19) = (  0.3333333  0.0230198  0.0230198  )
        20        Fe     tau(  20) = (  0.4703312  0.1963355  0.1963355  )
        21        Fe     tau(  21) = (  0.3333333 -0.0127100  0.3333333  )
        22        Fe     tau(  22) = (  0.4703312  0.1963355  0.4703312  )
        23        Fe     tau(  23) = (  0.3333333  0.0230198  0.6436469  )
        24        Fe     tau(  24) = (  0.5159676  0.1506990  0.8333333  )
        25        Fe     tau(  25) = (  0.3333333  0.3333333 -0.0127100  )
        26        Fe     tau(  26) = (  0.4703312  0.4703312  0.1963355  )
        27        Fe     tau(  27) = (  0.4703312  0.4703312  0.4703312  )
        28        Fe     tau(  28) = (  0.3333333  0.3333333  0.6793766  )
        29        Fe     tau(  29) = (  0.5159676  0.5159676  0.8333333  )
        30        Fe     tau(  30) = (  0.3333333  0.6436469  0.0230198  )
        31        Fe     tau(  31) = (  0.5159676  0.8333333  0.1506990  )
        32        Fe     tau(  32) = (  0.3333333  0.6793766  0.3333333  )
        33        Fe     tau(  33) = (  0.5159676  0.8333333  0.5159676  )
        34        Fe     tau(  34) = (  0.3333333  0.6436469  0.6436469  )
        35        Fe     tau(  35) = (  0.5086518  0.8333333  0.8333333  )
        36        Fe     tau(  36) = (  0.6373609  0.0293058  0.0293058  )
        37        Fe     tau(  37) = (  0.8333333  0.1506990  0.1506990  )
        38        Fe     tau(  38) = (  0.6436469  0.0230198  0.3333333  )
        39        Fe     tau(  39) = (  0.8333333  0.1506990  0.5159676  )
        40        Fe     tau(  40) = (  0.6373609  0.0293058  0.6373609  )
        41        Fe     tau(  41) = (  0.8333333  0.1580149  0.8333333  )
        42        Fe     tau(  42) = (  0.6436469  0.3333333  0.0230198  )
        43        Fe     tau(  43) = (  0.8333333  0.5159676  0.1506990  )
        44        Fe     tau(  44) = (  0.6793766  0.3333333  0.3333333  )
        45        Fe     tau(  45) = (  0.8333333  0.5159676  0.5159676  )
        46        Fe     tau(  46) = (  0.6436469  0.3333333  0.6436469  )
        47        Fe     tau(  47) = (  0.8333333  0.5086518  0.8333333  )
        48        Fe     tau(  48) = (  0.6373609  0.6373609  0.0293058  )
        49        Fe     tau(  49) = (  0.8333333  0.8333333  0.1580149  )
        50        Fe     tau(  50) = (  0.6436469  0.6436469  0.3333333  )
        51        Fe     tau(  51) = (  0.8333333  0.8333333  0.5086518  )
        52        Fe     tau(  52) = (  0.6373609  0.6373609  0.6373609  )
        53        Fe     tau(  53) = (  0.8333333  0.8333333  0.8333333  )

     number of k points=    56  Marzari-Vanderbilt smearing, width (Ry)=  0.0100
                       cart. coord. in units 2pi/alat
        k(    1) = (   0.0000000   0.0000000   0.0000000), wk =   0.0020000
        k(    2) = (   0.0000000   0.0000000   0.1000000), wk =   0.0120000
        k(    3) = (   0.0000000   0.0000000   0.2000000), wk =   0.0120000
        k(    4) = (   0.0000000   0.0000000   0.3000000), wk =   0.0120000
        k(    5) = (   0.0000000   0.0000000   0.4000000), wk =   0.0120000
        k(    6) = (   0.0000000   0.0000000  -0.5000000), wk =   0.0060000
        k(    7) = (   0.0000000   0.1000000   0.1000000), wk =   0.0240000
        k(    8) = (   0.0000000   0.1000000   0.2000000), wk =   0.0480000
        k(    9) = (   0.0000000   0.1000000   0.3000000), wk =   0.0480000
        k(   10) = (   0.0000000   0.1000000   0.4000000), wk =   0.0480000
        k(   11) = (   0.0000000   0.1000000  -0.5000000), wk =   0.0240000
        k(   12) = (   0.0000000   0.2000000   0.2000000), wk =   0.0240000
        k(   13) = (   0.0000000   0.2000000   0.3000000), wk =   0.0480000
        k(   14) = (   0.0000000   0.2000000   0.4000000), wk =   0.0480000
        k(   15) = (   0.0000000   0.2000000  -0.5000000), wk =   0.0240000
        k(   16) = (   0.0000000   0.3000000   0.3000000), wk =   0.0240000
        k(   17) = (   0.0000000   0.3000000   0.4000000), wk =   0.0480000
        k(   18) = (   0.0000000   0.3000000  -0.5000000), wk =   0.0240000
        k(   19) = (   0.0000000   0.4000000   0.4000000), wk =   0.0240000
        k(   20) = (   0.0000000   0.4000000  -0.5000000), wk =   0.0240000
        k(   21) = (   0.0000000  -0.5000000  -0.5000000), wk =   0.0060000
        k(   22) = (   0.1000000   0.1000000   0.1000000), wk =   0.0160000
        k(   23) = (   0.1000000   0.1000000   0.2000000), wk =   0.0480000
        k(   24) = (   0.1000000   0.1000000   0.3000000), wk =   0.0480000
        k(   25) = (   0.1000000   0.1000000   0.4000000), wk =   0.0480000
        k(   26) = (   0.1000000   0.1000000  -0.5000000), wk =   0.0240000
        k(   27) = (   0.1000000   0.2000000   0.2000000), wk =   0.0480000
        k(   28) = (   0.1000000   0.2000000   0.3000000), wk =   0.0960000
        k(   29) = (   0.1000000   0.2000000   0.4000000), wk =   0.0960000
        k(   30) = (   0.1000000   0.2000000  -0.5000000), wk =   0.0480000
        k(   31) = (   0.1000000   0.3000000   0.3000000), wk =   0.0480000
        k(   32) = (   0.1000000   0.3000000   0.4000000), wk =   0.0960000
        k(   33) = (   0.1000000   0.3000000  -0.5000000), wk =   0.0480000
        k(   34) = (   0.1000000   0.4000000   0.4000000), wk =   0.0480000
        k(   35) = (   0.1000000   0.4000000  -0.5000000), wk =   0.0480000
        k(   36) = (   0.1000000  -0.5000000  -0.5000000), wk =   0.0120000
        k(   37) = (   0.2000000   0.2000000   0.2000000), wk =   0.0160000
        k(   38) = (   0.2000000   0.2000000   0.3000000), wk =   0.0480000
        k(   39) = (   0.2000000   0.2000000   0.4000000), wk =   0.0480000
        k(   40) = (   0.2000000   0.2000000  -0.5000000), wk =   0.0240000
        k(   41) = (   0.2000000   0.3000000   0.3000000), wk =   0.0480000
        k(   42) = (   0.2000000   0.3000000   0.4000000), wk =   0.0960000
        k(   43) = (   0.2000000   0.3000000  -0.5000000), wk =   0.0480000
        k(   44) = (   0.2000000   0.4000000   0.4000000), wk =   0.0480000
        k(   45) = (   0.2000000   0.4000000  -0.5000000), wk =   0.0480000
        k(   46) = (   0.2000000  -0.5000000  -0.5000000), wk =   0.0120000
        k(   47) = (   0.3000000   0.3000000   0.3000000), wk =   0.0160000
        k(   48) = (   0.3000000   0.3000000   0.4000000), wk =   0.0480000
        k(   49) = (   0.3000000   0.3000000  -0.5000000), wk =   0.0240000
        k(   50) = (   0.3000000   0.4000000   0.4000000), wk =   0.0480000
        k(   51) = (   0.3000000   0.4000000  -0.5000000), wk =   0.0480000
        k(   52) = (   0.3000000  -0.5000000  -0.5000000), wk =   0.0120000
        k(   53) = (   0.4000000   0.4000000   0.4000000), wk =   0.0160000
        k(   54) = (   0.4000000   0.4000000  -0.5000000), wk =   0.0240000
        k(   55) = (   0.4000000  -0.5000000  -0.5000000), wk =   0.0120000
        k(   56) = (  -0.5000000  -0.5000000  -0.5000000), wk =   0.0020000

                       cryst. coord.
        k(    1) = (   0.0000000   0.0000000   0.0000000), wk =   0.0020000
        k(    2) = (   0.0000000   0.0000000   0.1000000), wk =   0.0120000
        k(    3) = (   0.0000000   0.0000000   0.2000000), wk =   0.0120000
        k(    4) = (   0.0000000   0.0000000   0.3000000), wk =   0.0120000
        k(    5) = (   0.0000000   0.0000000   0.4000000), wk =   0.0120000
        k(    6) = (   0.0000000   0.0000000  -0.5000000), wk =   0.0060000
        k(    7) = (   0.0000000   0.1000000   0.1000000), wk =   0.0240000
        k(    8) = (   0.0000000   0.1000000   0.2000000), wk =   0.0480000
        k(    9) = (   0.0000000   0.1000000   0.3000000), wk =   0.0480000
        k(   10) = (   0.0000000   0.1000000   0.4000000), wk =   0.0480000
        k(   11) = (   0.0000000   0.1000000  -0.5000000), wk =   0.0240000
        k(   12) = (   0.0000000   0.2000000   0.2000000), wk =   0.0240000
        k(   13) = (   0.0000000   0.2000000   0.3000000), wk =   0.0480000
        k(   14) = (   0.0000000   0.2000000   0.4000000), wk =   0.0480000
        k(   15) = (   0.0000000   0.2000000  -0.5000000), wk =   0.0240000
        k(   16) = (   0.0000000   0.3000000   0.3000000), wk =   0.0240000
        k(   17) = (   0.0000000   0.3000000   0.4000000), wk =   0.0480000
        k(   18) = (   0.0000000   0.3000000  -0.5000000), wk =   0.0240000
        k(   19) = (   0.0000000   0.4000000   0.4000000), wk =   0.0240000
        k(   20) = (   0.0000000   0.4000000  -0.5000000), wk =   0.0240000
        k(   21) = (   0.0000000  -0.5000000  -0.5000000), wk =   0.0060000
        k(   22) = (   0.1000000   0.1000000   0.1000000), wk =   0.0160000
        k(   23) = (   0.1000000   0.1000000   0.2000000), wk =   0.0480000
        k(   24) = (   0.1000000   0.1000000   0.3000000), wk =   0.0480000
        k(   25) = (   0.1000000   0.1000000   0.4000000), wk =   0.0480000
        k(   26) = (   0.1000000   0.1000000  -0.5000000), wk =   0.0240000
        k(   27) = (   0.1000000   0.2000000   0.2000000), wk =   0.0480000
        k(   28) = (   0.1000000   0.2000000   0.3000000), wk =   0.0960000
        k(   29) = (   0.1000000   0.2000000   0.4000000), wk =   0.0960000
        k(   30) = (   0.1000000   0.2000000  -0.5000000), wk =   0.0480000
        k(   31) = (   0.1000000   0.3000000   0.3000000), wk =   0.0480000
        k(   32) = (   0.1000000   0.3000000   0.4000000), wk =   0.0960000
        k(   33) = (   0.1000000   0.3000000  -0.5000000), wk =   0.0480000
        k(   34) = (   0.1000000   0.4000000   0.4000000), wk =   0.0480000
        k(   35) = (   0.1000000   0.4000000  -0.5000000), wk =   0.0480000
        k(   36) = (   0.1000000  -0.5000000  -0.5000000), wk =   0.0120000
        k(   37) = (   0.2000000   0.2000000   0.2000000), wk =   0.0160000
        k(   38) = (   0.2000000   0.2000000   0.3000000), wk =   0.0480000
        k(   39) = (   0.2000000   0.2000000   0.4000000), wk =   0.0480000
        k(   40) = (   0.2000000   0.2000000  -0.5000000), wk =   0.0240000
        k(   41) = (   0.2000000   0.3000000   0.3000000), wk =   0.0480000
        k(   42) = (   0.2000000   0.3000000   0.4000000), wk =   0.0960000
        k(   43) = (   0.2000000   0.3000000  -0.5000000), wk =   0.0480000
        k(   44) = (   0.2000000   0.4000000   0.4000000), wk =   0.0480000
        k(   45) = (   0.2000000   0.4000000  -0.5000000), wk =   0.0480000
        k(   46) = (   0.2000000  -0.5000000  -0.5000000), wk =   0.0120000
        k(   47) = (   0.3000000   0.3000000   0.3000000), wk =   0.0160000
        k(   48) = (   0.3000000   0.3000000   0.4000000), wk =   0.0480000
        k(   49) = (   0.3000000   0.3000000  -0.5000000), wk =   0.0240000
        k(   50) = (   0.3000000   0.4000000   0.4000000), wk =   0.0480000
        k(   51) = (   0.3000000   0.4000000  -0.5000000), wk =   0.0480000
        k(   52) = (   0.3000000  -0.5000000  -0.5000000), wk =   0.0120000
        k(   53) = (   0.4000000   0.4000000   0.4000000), wk =   0.0160000
        k(   54) = (   0.4000000   0.4000000  -0.5000000), wk =   0.0240000
        k(   55) = (   0.4000000  -0.5000000  -0.5000000), wk =   0.0120000
        k(   56) = (  -0.5000000  -0.5000000  -0.5000000), wk =   0.0020000

     Dense  grid:  2576031 G-vectors     FFT dimensions: ( 180, 180, 180)

     Smooth grid:   495639 G-vectors     FFT dimensions: ( 108, 108, 108)

     Dynamical RAM for                 wfc:      30.08 MB

     Dynamical RAM for     wfc (w. buffer):     240.64 MB

     Dynamical RAM for           str. fact:       2.46 MB

     Dynamical RAM for           local pot:       0.00 MB

     Dynamical RAM for          nlocal pot:      56.38 MB

     Dynamical RAM for                qrad:       2.64 MB

     Dynamical RAM for          rho,v,vnew:      16.27 MB

     Dynamical RAM for               rhoin:       5.42 MB

     Dynamical RAM for            rho*nmix:      39.31 MB

     Dynamical RAM for           G-vectors:       9.45 MB

     Dynamical RAM for          h,s,v(r/c):       2.95 MB

     Dynamical RAM for          <psi|beta>:       7.41 MB

     Dynamical RAM for                 psi:      60.16 MB

     Dynamical RAM for                hpsi:      60.16 MB

     Dynamical RAM for                spsi:      60.16 MB

     Dynamical RAM for      wfcinit/wfcrot:      69.08 MB

     Dynamical RAM for           addusdens:      75.54 MB

     Dynamical RAM for          addusforce:     106.77 MB

     Dynamical RAM for         addusstress:      62.80 MB

     Estimated static dynamical RAM per process >     353.00 MB

     Estimated max dynamical RAM per process >     583.15 MB

     Estimated total dynamical RAM >      68.60 GB

     Initial potential from superposition of free atoms

     starting charge     847.9768, renormalised to     848.0000
     Starting wfcs are  530 randomized atomic wfcs
     Checking if some PAW data can be deallocated... 

     total cpu time spent up to now is       39.2 secs

     per-process dynamical memory:   547.5 Mb

     Self-consistent Calculation

     iteration #  1     ecut=    90.00 Ry     beta= 0.20
     Davidson diagonalization with overlap

---- Real-time Memory Report at c_bands before calling an iterative solver
          1146 MiB given to the printing process from OS
           540 MiB allocation reported by mallinfo(arena+hblkhd)
        425194 MiB available memory on the node where the printing process lives
------------------
     ethr =  1.00E-02,  avg # of iterations =  3.5

     total cpu time spent up to now is      168.0 secs

     total energy              =  -17442.81809389 Ry
     estimated scf accuracy    <      19.84632600 Ry

     iteration #  2     ecut=    90.00 Ry     beta= 0.20
     Davidson diagonalization with overlap

---- Real-time Memory Report at c_bands before calling an iterative solver
          1314 MiB given to the printing process from OS
           551 MiB allocation reported by mallinfo(arena+hblkhd)
        420122 MiB available memory on the node where the printing process lives
------------------
     ethr =  2.34E-03,  avg # of iterations =  3.0

     total cpu time spent up to now is      296.4 secs

     total energy              =  -17438.40498106 Ry
     estimated scf accuracy    <     631.91693727 Ry

     iteration #  3     ecut=    90.00 Ry     beta= 0.20
     Davidson diagonalization with overlap

---- Real-time Memory Report at c_bands before calling an iterative solver
          1314 MiB given to the printing process from OS
           552 MiB allocation reported by mallinfo(arena+hblkhd)
        420303 MiB available memory on the node where the printing process lives
------------------
     ethr =  2.34E-03,  avg # of iterations =  2.9

     total cpu time spent up to now is      409.8 secs

     total energy              =  -17447.92901765 Ry
     estimated scf accuracy    <     115.00233549 Ry

     iteration #  4     ecut=    90.00 Ry     beta= 0.20
     Davidson diagonalization with overlap

---- Real-time Memory Report at c_bands before calling an iterative solver
          1314 MiB given to the printing process from OS
           553 MiB allocation reported by mallinfo(arena+hblkhd)
        420381 MiB available memory on the node where the printing process lives
------------------
     ethr =  2.34E-03,  avg # of iterations =  1.3

     total cpu time spent up to now is      508.7 secs

     total energy              =  -17449.74040253 Ry
     estimated scf accuracy    <      16.31429175 Ry

     iteration #  5     ecut=    90.00 Ry     beta= 0.20
     Davidson diagonalization with overlap

---- Real-time Memory Report at c_bands before calling an iterative solver
          1319 MiB given to the printing process from OS
           555 MiB allocation reported by mallinfo(arena+hblkhd)
        420496 MiB available memory on the node where the printing process lives
------------------
     ethr =  1.92E-03,  avg # of iterations =  1.0

     total cpu time spent up to now is      602.0 secs

     total energy              =  -17449.84832181 Ry
     estimated scf accuracy    <      17.36633923 Ry

     iteration #  6     ecut=    90.00 Ry     beta= 0.20
     Davidson diagonalization with overlap

---- Real-time Memory Report at c_bands before calling an iterative solver
          1319 MiB given to the printing process from OS
           556 MiB allocation reported by mallinfo(arena+hblkhd)
        420361 MiB available memory on the node where the printing process lives
------------------
     ethr =  1.92E-03,  avg # of iterations =  1.0

     total cpu time spent up to now is      697.3 secs

     total energy              =  -17448.56329390 Ry
     estimated scf accuracy    <      13.45431561 Ry

     iteration #  7     ecut=    90.00 Ry     beta= 0.20
     Davidson diagonalization with overlap

---- Real-time Memory Report at c_bands before calling an iterative solver
          1319 MiB given to the printing process from OS
           557 MiB allocation reported by mallinfo(arena+hblkhd)
        420337 MiB available memory on the node where the printing process lives
------------------
     ethr =  1.59E-03,  avg # of iterations =  1.8

     total cpu time spent up to now is      801.9 secs

     total energy              =  -17450.63956749 Ry
     estimated scf accuracy    <      26.20907864 Ry

     iteration #  8     ecut=    90.00 Ry     beta= 0.20
     Davidson diagonalization with overlap

---- Real-time Memory Report at c_bands before calling an iterative solver
          1319 MiB given to the printing process from OS
           558 MiB allocation reported by mallinfo(arena+hblkhd)
        420304 MiB available memory on the node where the printing process lives
------------------
     ethr =  1.59E-03,  avg # of iterations =  1.1

     total cpu time spent up to now is      900.1 secs

     total energy              =  -17449.54442776 Ry
     estimated scf accuracy    <      50.88519075 Ry

     iteration #  9     ecut=    90.00 Ry     beta= 0.20
     Davidson diagonalization with overlap

---- Real-time Memory Report at c_bands before calling an iterative solver
          1319 MiB given to the printing process from OS
           559 MiB allocation reported by mallinfo(arena+hblkhd)
        420218 MiB available memory on the node where the printing process lives
------------------
     ethr =  1.59E-03,  avg # of iterations =  1.0

     total cpu time spent up to now is      993.9 secs

     total energy              =  -17449.62897372 Ry
     estimated scf accuracy    <      18.90049273 Ry

     iteration # 10     ecut=    90.00 Ry     beta= 0.20
     Davidson diagonalization with overlap

---- Real-time Memory Report at c_bands before calling an iterative solver
          1319 MiB given to the printing process from OS
           560 MiB allocation reported by mallinfo(arena+hblkhd)
        420244 MiB available memory on the node where the printing process lives
------------------
     ethr =  1.59E-03,  avg # of iterations =  1.0

     total cpu time spent up to now is     1088.6 secs

     total energy              =  -17449.08727565 Ry
     estimated scf accuracy    <      15.03063913 Ry

     iteration # 11     ecut=    90.00 Ry     beta= 0.20
     Davidson diagonalization with overlap

---- Real-time Memory Report at c_bands before calling an iterative solver
          1320 MiB given to the printing process from OS
           560 MiB allocation reported by mallinfo(arena+hblkhd)
        420237 MiB available memory on the node where the printing process lives
------------------
     ethr =  1.59E-03,  avg # of iterations =  1.0

     total cpu time spent up to now is     1180.9 secs

     total energy              =  -17449.36449862 Ry
     estimated scf accuracy    <       2.28668580 Ry

     iteration # 12     ecut=    90.00 Ry     beta= 0.20
     Davidson diagonalization with overlap

---- Real-time Memory Report at c_bands before calling an iterative solver
          1320 MiB given to the printing process from OS
           560 MiB allocation reported by mallinfo(arena+hblkhd)
        420176 MiB available memory on the node where the printing process lives
------------------
     ethr =  2.70E-04,  avg # of iterations =  2.5

     total cpu time spent up to now is     1286.9 secs

     total energy              =  -17449.29949880 Ry
     estimated scf accuracy    <       3.80658420 Ry

     iteration # 13     ecut=    90.00 Ry     beta= 0.20
     Davidson diagonalization with overlap

---- Real-time Memory Report at c_bands before calling an iterative solver
          1320 MiB given to the printing process from OS
           560 MiB allocation reported by mallinfo(arena+hblkhd)
        420178 MiB available memory on the node where the printing process lives
------------------
     ethr =  2.70E-04,  avg # of iterations =  1.4

     total cpu time spent up to now is     1388.7 secs

     total energy              =  -17449.40531952 Ry
     estimated scf accuracy    <       2.37125093 Ry

     iteration # 14     ecut=    90.00 Ry     beta= 0.20
     Davidson diagonalization with overlap

---- Real-time Memory Report at c_bands before calling an iterative solver
          1320 MiB given to the printing process from OS
           560 MiB allocation reported by mallinfo(arena+hblkhd)
        420170 MiB available memory on the node where the printing process lives
------------------
     ethr =  2.70E-04,  avg # of iterations =  1.5

     total cpu time spent up to now is     1488.7 secs

     total energy              =  -17449.45383824 Ry
     estimated scf accuracy    <       0.24376277 Ry

     iteration # 15     ecut=    90.00 Ry     beta= 0.20
     Davidson diagonalization with overlap

---- Real-time Memory Report at c_bands before calling an iterative solver
          1320 MiB given to the printing process from OS
           560 MiB allocation reported by mallinfo(arena+hblkhd)
        420157 MiB available memory on the node where the printing process lives
------------------
     ethr =  2.87E-05,  avg # of iterations =  7.8

     total cpu time spent up to now is     1605.8 secs

     total energy              =  -17449.45729343 Ry
     estimated scf accuracy    <       0.19331985 Ry

     iteration # 16     ecut=    90.00 Ry     beta= 0.20
     Davidson diagonalization with overlap

---- Real-time Memory Report at c_bands before calling an iterative solver
          1320 MiB given to the printing process from OS
           560 MiB allocation reported by mallinfo(arena+hblkhd)
        420144 MiB available memory on the node where the printing process lives
------------------
     ethr =  2.28E-05,  avg # of iterations =  2.3

     total cpu time spent up to now is     1710.9 secs

     total energy              =  -17449.45936689 Ry
     estimated scf accuracy    <       0.12043228 Ry

     iteration # 17     ecut=    90.00 Ry     beta= 0.20
     Davidson diagonalization with overlap

---- Real-time Memory Report at c_bands before calling an iterative solver
          1320 MiB given to the printing process from OS
           560 MiB allocation reported by mallinfo(arena+hblkhd)
        420190 MiB available memory on the node where the printing process lives
------------------
     ethr =  1.42E-05,  avg # of iterations =  2.4

     total cpu time spent up to now is     1816.6 secs

     total energy              =  -17449.46218917 Ry
     estimated scf accuracy    <       0.01091827 Ry

     iteration # 18     ecut=    90.00 Ry     beta= 0.20
     Davidson diagonalization with overlap

---- Real-time Memory Report at c_bands before calling an iterative solver
          1320 MiB given to the printing process from OS
           560 MiB allocation reported by mallinfo(arena+hblkhd)
        420190 MiB available memory on the node where the printing process lives
------------------
     c_bands:  1 eigenvalues not converged
     ethr =  1.29E-06,  avg # of iterations =  7.2

     total cpu time spent up to now is     1934.6 secs

     total energy              =  -17449.46102149 Ry
     estimated scf accuracy    <       0.05439806 Ry

     iteration # 19     ecut=    90.00 Ry     beta= 0.20
     Davidson diagonalization with overlap

---- Real-time Memory Report at c_bands before calling an iterative solver
          1320 MiB given to the printing process from OS
           560 MiB allocation reported by mallinfo(arena+hblkhd)
        420193 MiB available memory on the node where the printing process lives
------------------
     ethr =  1.29E-06,  avg # of iterations =  1.4

     total cpu time spent up to now is     2036.4 secs

     total energy              =  -17449.46227481 Ry
     estimated scf accuracy    <       0.01116371 Ry

     iteration # 20     ecut=    90.00 Ry     beta= 0.20
     Davidson diagonalization with overlap

---- Real-time Memory Report at c_bands before calling an iterative solver
          1320 MiB given to the printing process from OS
           560 MiB allocation reported by mallinfo(arena+hblkhd)
        420120 MiB available memory on the node where the printing process lives
------------------
     ethr =  1.29E-06,  avg # of iterations =  1.1

     total cpu time spent up to now is     2131.2 secs

     total energy              =  -17449.46211997 Ry
     estimated scf accuracy    <       0.02188166 Ry

     iteration # 21     ecut=    90.00 Ry     beta= 0.20
     Davidson diagonalization with overlap

---- Real-time Memory Report at c_bands before calling an iterative solver
          1320 MiB given to the printing process from OS
           560 MiB allocation reported by mallinfo(arena+hblkhd)
        420171 MiB available memory on the node where the printing process lives
------------------
     ethr =  1.29E-06,  avg # of iterations =  1.1

     total cpu time spent up to now is     2227.0 secs

     total energy              =  -17449.46207049 Ry
     estimated scf accuracy    <       0.00566385 Ry

     iteration # 22     ecut=    90.00 Ry     beta= 0.20
     Davidson diagonalization with overlap

---- Real-time Memory Report at c_bands before calling an iterative solver
          1320 MiB given to the printing process from OS
           560 MiB allocation reported by mallinfo(arena+hblkhd)
        420166 MiB available memory on the node where the printing process lives
------------------
     ethr =  6.68E-07,  avg # of iterations =  1.0

     total cpu time spent up to now is     2322.0 secs

     total energy              =  -17449.46217450 Ry
     estimated scf accuracy    <       0.00012669 Ry

     iteration # 23     ecut=    90.00 Ry     beta= 0.20
     Davidson diagonalization with overlap

---- Real-time Memory Report at c_bands before calling an iterative solver
          1320 MiB given to the printing process from OS
           560 MiB allocation reported by mallinfo(arena+hblkhd)
        420217 MiB available memory on the node where the printing process lives
------------------
     ethr =  1.49E-08,  avg # of iterations =  1.4

     total cpu time spent up to now is     2423.0 secs

     total energy              =  -17449.46217393 Ry
     estimated scf accuracy    <       0.00010843 Ry

     iteration # 24     ecut=    90.00 Ry     beta= 0.20
     Davidson diagonalization with overlap

---- Real-time Memory Report at c_bands before calling an iterative solver
          1324 MiB given to the printing process from OS
           560 MiB allocation reported by mallinfo(arena+hblkhd)
        420121 MiB available memory on the node where the printing process lives
------------------
     ethr =  1.28E-08,  avg # of iterations =  1.0

     total cpu time spent up to now is     2515.9 secs

     total energy              =  -17449.46217758 Ry
     estimated scf accuracy    <       0.00004150 Ry

     iteration # 25     ecut=    90.00 Ry     beta= 0.20
     Davidson diagonalization with overlap

---- Real-time Memory Report at c_bands before calling an iterative solver
          1324 MiB given to the printing process from OS
           560 MiB allocation reported by mallinfo(arena+hblkhd)
        420101 MiB available memory on the node where the printing process lives
------------------
     ethr =  4.89E-09,  avg # of iterations =  1.0

     total cpu time spent up to now is     2611.1 secs

     total energy              =  -17449.46217778 Ry
     estimated scf accuracy    <       0.00000495 Ry

     iteration # 26     ecut=    90.00 Ry     beta= 0.20
     Davidson diagonalization with overlap

---- Real-time Memory Report at c_bands before calling an iterative solver
          1324 MiB given to the printing process from OS
           560 MiB allocation reported by mallinfo(arena+hblkhd)
        420045 MiB available memory on the node where the printing process lives
------------------
     ethr =  5.84E-10,  avg # of iterations =  2.7

     total cpu time spent up to now is     2719.2 secs

     total energy              =  -17449.46217671 Ry
     estimated scf accuracy    <       0.00005575 Ry

     iteration # 27     ecut=    90.00 Ry     beta= 0.20
     Davidson diagonalization with overlap

---- Real-time Memory Report at c_bands before calling an iterative solver
          1324 MiB given to the printing process from OS
           560 MiB allocation reported by mallinfo(arena+hblkhd)
        420099 MiB available memory on the node where the printing process lives
------------------
     ethr =  5.84E-10,  avg # of iterations =  1.3

     total cpu time spent up to now is     2819.0 secs

     total energy              =  -17449.46217798 Ry
     estimated scf accuracy    <       0.00000044 Ry

     iteration # 28     ecut=    90.00 Ry     beta= 0.20
     Davidson diagonalization with overlap

---- Real-time Memory Report at c_bands before calling an iterative solver
          1324 MiB given to the printing process from OS
           560 MiB allocation reported by mallinfo(arena+hblkhd)
        420037 MiB available memory on the node where the printing process lives
------------------
     ethr =  5.19E-11,  avg # of iterations =  3.9

     total cpu time spent up to now is     2936.1 secs

     total energy              =  -17449.46217799 Ry
     estimated scf accuracy    <       0.00000208 Ry

     iteration # 29     ecut=    90.00 Ry     beta= 0.20
     Davidson diagonalization with overlap

---- Real-time Memory Report at c_bands before calling an iterative solver
          1324 MiB given to the printing process from OS
           560 MiB allocation reported by mallinfo(arena+hblkhd)
        420036 MiB available memory on the node where the printing process lives
------------------
     ethr =  5.19E-11,  avg # of iterations =  1.2

     total cpu time spent up to now is     3035.6 secs

     total energy              =  -17449.46217802 Ry
     estimated scf accuracy    <       0.00000012 Ry

     iteration # 30     ecut=    90.00 Ry     beta= 0.20
     Davidson diagonalization with overlap

---- Real-time Memory Report at c_bands before calling an iterative solver
          1324 MiB given to the printing process from OS
           560 MiB allocation reported by mallinfo(arena+hblkhd)
        419971 MiB available memory on the node where the printing process lives
------------------
     ethr =  1.44E-11,  avg # of iterations =  1.9

     total cpu time spent up to now is     3140.2 secs

     total energy              =  -17449.46217802 Ry
     estimated scf accuracy    <       0.00000029 Ry

     iteration # 31     ecut=    90.00 Ry     beta= 0.20
     Davidson diagonalization with overlap

---- Real-time Memory Report at c_bands before calling an iterative solver
          1324 MiB given to the printing process from OS
           560 MiB allocation reported by mallinfo(arena+hblkhd)
        419918 MiB available memory on the node where the printing process lives
------------------
     ethr =  1.44E-11,  avg # of iterations =  1.1

     total cpu time spent up to now is     3239.3 secs

     total energy              =  -17449.46217802 Ry
     estimated scf accuracy    <       0.00000022 Ry

     iteration # 32     ecut=    90.00 Ry     beta= 0.20
     Davidson diagonalization with overlap

---- Real-time Memory Report at c_bands before calling an iterative solver
          1324 MiB given to the printing process from OS
           560 MiB allocation reported by mallinfo(arena+hblkhd)
        419959 MiB available memory on the node where the printing process lives
------------------
     ethr =  1.44E-11,  avg # of iterations =  1.4

     total cpu time spent up to now is     3342.1 secs

     total energy              =  -17449.46217801 Ry
     estimated scf accuracy    <       0.00000056 Ry

     iteration # 33     ecut=    90.00 Ry     beta= 0.20
     Davidson diagonalization with overlap

---- Real-time Memory Report at c_bands before calling an iterative solver
          1324 MiB given to the printing process from OS
           560 MiB allocation reported by mallinfo(arena+hblkhd)
        419967 MiB available memory on the node where the printing process lives
------------------
     ethr =  1.44E-11,  avg # of iterations =  1.0

     total cpu time spent up to now is     3437.1 secs

     total energy              =  -17449.46217802 Ry
     estimated scf accuracy    <       0.00000007 Ry

     iteration # 34     ecut=    90.00 Ry     beta= 0.20
     Davidson diagonalization with overlap

---- Real-time Memory Report at c_bands before calling an iterative solver
          1324 MiB given to the printing process from OS
           560 MiB allocation reported by mallinfo(arena+hblkhd)
        419954 MiB available memory on the node where the printing process lives
------------------
     ethr =  7.68E-12,  avg # of iterations =  1.0

     total cpu time spent up to now is     3534.1 secs

     total energy              =  -17449.46217801 Ry
     estimated scf accuracy    <       0.00000040 Ry

     iteration # 35     ecut=    90.00 Ry     beta= 0.20
     Davidson diagonalization with overlap

---- Real-time Memory Report at c_bands before calling an iterative solver
          1324 MiB given to the printing process from OS
           560 MiB allocation reported by mallinfo(arena+hblkhd)
        420010 MiB available memory on the node where the printing process lives
------------------
     ethr =  7.68E-12,  avg # of iterations =  1.0

     total cpu time spent up to now is     3627.0 secs

     End of self-consistent calculation

          k = 0.0000 0.0000 0.0000 ( 62093 PWs)   bands (ev):

   -70.1589 -70.1487 -70.1487 -70.1487 -70.1395 -70.1395 -70.1395 -70.1300
   -70.1256 -70.0950 -70.0950 -70.0950 -70.0645 -70.0645 -70.0645 -70.0353
   -69.9992 -69.9992 -69.9972 -69.9972 -69.9972 -69.9863 -69.9863 -69.9863
   -69.9795 -69.9795 -69.9795 -69.9767 -69.8751 -69.8751 -69.8707 -69.8696
   -69.8696 -69.8696 -69.8638 -69.8638 -69.8638 -69.8636 -69.8636 -69.8635
   -69.8635 -69.8635 -69.8600 -69.8600 -69.8600 -69.8578 -69.7021 -69.7021
   -69.7020 -69.7012 -69.7012 -69.7012 -69.6196 -36.4184 -36.4184 -36.4184
   -36.4051 -36.4051 -36.4014 -36.4014 -36.3963 -36.3963 -36.3963 -36.3825
   -36.3825 -36.3825 -36.3794 -36.3794 -36.3794 -36.3710 -36.3710 -36.3531
   -36.3531 -36.3531 -36.2925 -36.2925 -36.2925 -36.2874 -36.2874 -36.2874
   -36.2570 -36.2401 -36.1931 -36.1931 -36.1931 -36.1758 -36.1758 -36.1758
   -36.1325 -36.1325 -36.1325 -36.1286 -36.1286 -36.1286 -36.1226 -36.1016
   -36.0867 -36.0861 -36.0861 -36.0861 -36.0844 -36.0844 -36.0702 -36.0702
   -36.0702 -36.0653 -36.0549 -36.0549 -36.0549 -36.0491 -36.0491 -36.0491
   -36.0469 -36.0469 -36.0469 -36.0348 -36.0348 -36.0151 -36.0151 -36.0151
   -36.0098 -36.0098 -35.9826 -35.9826 -35.9826 -35.9798 -35.9798 -35.9798
   -35.9725 -35.9725 -35.9725 -35.9710 -35.9640 -35.9566 -35.9566 -35.9566
   -35.9435 -35.9435 -35.9362 -35.9362 -35.9362 -35.9309 -35.9309 -35.9302
   -35.9302 -35.9201 -35.9201 -35.9201 -35.9198 -35.9198 -35.9198 -35.9161
   -35.9161 -35.9161 -35.9032 -35.8902 -35.8902 -35.8902 -35.8896 -35.8896
   -35.8896 -35.8874 -35.8874 -35.8874 -35.8832 -35.8832 -35.8832 -35.8779
   -35.8767 -35.8767 -35.8639 -35.8639 -35.8639 -35.8566 -35.8566 -35.8566
   -35.8508 -35.8508 -35.8508 -35.8463 -35.8463 -35.8463 -35.8436 -35.8436
   -35.8379 -35.8379 -35.8379 -35.8241 -35.8241 -35.8241 -35.8043 -35.7928
   -35.7928 -35.7928 -35.7902 -35.7902 -35.7902 -35.7887 -35.7887 -35.7887
   -35.7843 -35.7843 -35.7843 -35.6946 -35.6946 -35.6946 -35.6726 -35.6726
   -35.6722 -35.6422 -35.6422 -35.6422   8.8823  10.8135  10.8135  10.8135
    11.1201  11.1201  11.1210  12.1595  12.1595  12.1595  12.2075  12.2075
    12.2075  12.3166  12.3166  12.3414  12.3414  12.3414  12.7305  13.1417
    13.1417  13.1507  13.1507  13.1507  13.2759  13.2759  13.2759  13.3035
    13.3035  13.3329  13.4676  13.4676  13.4676  13.4747  13.4747  13.4747
    13.5120  13.5120  13.5120  13.5920  13.6038  13.6038  13.6038  13.6342
    13.7015  13.7015  13.7015  13.9029  13.9029  13.9095  13.9095  13.9202
    13.9479  13.9479  13.9479  13.9899  14.0109  14.0109  14.0109  14.2429
    14.2429  14.2429  14.2479  14.2479  14.2784  14.2784  14.2784  14.3637
    14.3637  14.3637  14.3698  14.3698  14.3698  14.4064  14.4064  14.4064
    14.4291  14.4291  14.4875  14.4894  14.5342  14.5342  14.5342  14.5532
    14.5532  14.5532  14.6404  14.6404  14.6747  14.7154  14.7154  14.7154
    14.8468  14.8468  14.8468  14.9377  14.9377  14.9377  14.9553  14.9553
    14.9800  14.9800  14.9800  15.0969  15.0969  15.1038  15.1038  15.1038
    15.1376  15.1376  15.1376  15.1713  15.1713  15.1713  15.2224  15.2224
    15.2224  15.3016  15.3185  15.3185  15.4293  15.4293  15.5936  15.5936
    15.5936  15.5945  15.5945  15.5945  15.6033  15.6033  15.6033  15.6194
    15.6194  15.6194  15.6425  15.7312  15.7312  15.7391  15.7927  15.7927
    15.7927  15.8660  15.8660  15.8660  15.8800  15.8800  15.8800  15.9080
    15.9080  15.9080  15.9459  15.9459  15.9459  15.9851  16.0092  16.0092
    16.0174  16.0174  16.0174  16.0522  16.0522  16.0522  16.0940  16.1095
    16.1095  16.1095  16.1449  16.1570  16.1570  16.1570  16.2366  16.2366
    16.3610  16.3610  16.3610  16.3755  16.3755  16.3755  16.4616  16.4616
    16.4924  16.4924  16.4924  16.4932  16.4932  16.4932  16.5193  16.5193
    16.5193  16.5264  16.5297  16.5297  16.5967  16.5967  16.6920  16.6920
    16.6920  16.7396  16.7396  16.7396  16.7869  16.7869  16.7869  16.8726
    16.8726  16.8726  17.0153  17.0153  17.0153  17.0692  17.0692  17.0692
    17.0756  17.0756  17.0756  17.0921  17.0921  17.2558  17.2558  17.2558
    17.3004  17.3022  17.3022  17.3022  17.3176  17.3176  17.3176  17.3987
    17.3987  17.4164  17.4164  17.4164  17.4463  17.4463  17.4463  17.4861
    17.4861  17.4925  17.5062  17.5062  17.5062  17.5294  17.5294  17.5294
    17.5415  17.5415  17.5415  17.5475  17.5510  17.5510  17.5665  17.5665
    17.6089  17.6089  17.6089  17.6643  17.6643  17.6661  17.7519  17.7519
    17.7519  17.7563  17.7563  17.7563  17.7595  17.7595  17.7595  17.8608
    17.8608  17.8608  17.9317  17.9317  17.9317  17.9335  17.9335  17.9688
    17.9688  17.9688  18.0320  18.0320  18.0320  18.0576  18.0720  18.0720
    19.0753  19.4406  19.4406  19.4406  19.4495  19.4495  19.4495  19.6704
    19.7365  19.7365  19.7365  19.9049  19.9049

     occupation numbers 
     1.0000   1.0000   1.0000   1.0000   1.0000   1.0000   1.0000   1.0000
     1.0000   1.0000   1.0000   1.0000   1.0000   1.0000   1.0000   1.0000
     1.0000   1.0000   1.0000   1.0000   1.0000   1.0000   1.0000   1.0000
     1.0000   1.0000   1.0000   1.0000   1.0000   1.0000   1.0000   1.0000
     1.0000   1.0000   1.0000   1.0000   1.0000   1.0000   1.0000   1.0000
     1.0000   1.0000   1.0000   1.0000   1.0000   1.0000   1.0000   1.0000
     1.0000   1.0000   1.0000   1.0000   1.0000   1.0000   1.0000   1.0000
     1.0000   1.0000   1.0000   1.0000   1.0000   1.0000   1.0000   1.0000
     1.0000   1.0000   1.0000   1.0000   1.0000   1.0000   1.0000   1.0000
     1.0000   1.0000   1.0000   1.0000   1.0000   1.0000   1.0000   1.0000
     1.0000   1.0000   1.0000   1.0000   1.0000   1.0000   1.0000   1.0000
     1.0000   1.0000   1.0000   1.0000   1.0000   1.0000   1.0000   1.0000
     1.0000   1.0000   1.0000   1.0000   1.0000   1.0000   1.0000   1.0000
     1.0000   1.0000   1.0000   1.0000   1.0000   1.0000   1.0000   1.0000
     1.0000   1.0000   1.0000   1.0000   1.0000   1.0000   1.0000   1.0000
     1.0000   1.0000   1.0000   1.0000   1.0000   1.0000   1.0000   1.0000
     1.0000   1.0000   1.0000   1.0000   1.0000   1.0000   1.0000   1.0000
     1.0000   1.0000   1.0000   1.0000   1.0000   1.0000   1.0000   1.0000
     1.0000   1.0000   1.0000   1.0000   1.0000   1.0000   1.0000   1.0000
     1.0000   1.0000   1.0000   1.0000   1.0000   1.0000   1.0000   1.0000
     1.0000   1.0000   1.0000   1.0000   1.0000   1.0000   1.0000   1.0000
     1.0000   1.0000   1.0000   1.0000   1.0000   1.0000   1.0000   1.0000
     1.0000   1.0000   1.0000   1.0000   1.0000   1.0000   1.0000   1.0000
     1.0000   1.0000   1.0000   1.0000   1.0000   1.0000   1.0000   1.0000
     1.0000   1.0000   1.0000   1.0000   1.0000   1.0000   1.0000   1.0000
     1.0000   1.0000   1.0000   1.0000   1.0000   1.0000   1.0000   1.0000
     1.0000   1.0000   1.0000   1.0000   1.0000   1.0000   1.0000   1.0000
     1.0000   1.0000   1.0000   1.0000   1.0000   1.0000   1.0000   1.0000
     1.0000   1.0000   1.0000   1.0000   1.0000   1.0000   1.0000   1.0000
     1.0000   1.0000   1.0000   1.0000   1.0000   1.0000   1.0000   1.0000
     1.0000   1.0000   1.0000   1.0000   1.0000   1.0000   1.0000   1.0000
     1.0000   1.0000   1.0000   1.0000   1.0000   1.0000   1.0000   1.0000
     1.0000   1.0000   1.0000   1.0000   1.0000   1.0000   1.0000   1.0000
     1.0000   1.0000   1.0000   1.0000   1.0000   1.0000   1.0000   1.0000
     1.0000   1.0000   1.0000   1.0000   1.0000   1.0000   1.0000   1.0000
     1.0000   1.0000   1.0000   1.0000   1.0000   1.0000   1.0000   1.0000
     1.0000   1.0000   1.0000   1.0000   1.0000   1.0000   1.0000   1.0000
     1.0000   1.0000   1.0000   1.0000   1.0000   1.0000   1.0000   1.0000
     1.0000   1.0000   1.0000   1.0000   1.0000   1.0000   1.0000   1.0000
     1.0000   1.0000   1.0000   1.0000   1.0000   1.0000   1.0000   1.0000
     1.0000   1.0000   1.0000   1.0000   1.0000   1.0000   1.0000   1.0000
     1.0000   1.0000   1.0000   1.0000   1.0000   1.0000   1.0000   1.0000
     1.0000   1.0000   1.0000   1.0000   1.0000   1.0000   1.0000   1.0000
     1.0000   1.0000   1.0000   1.0000   1.0000   1.0000   1.0000   1.0000
     1.0000   1.0000   1.0000   1.0000   1.0000   1.0000   1.0000   1.0000
     1.0000   1.0000   1.0000   1.0000   1.0000   1.0000   1.0000   1.0000
     1.0000   1.0000   1.0000   1.0000   1.0000   1.0000   1.0000   1.0000
     1.0000   1.0000   1.0000   1.0000   1.0000   1.0000   1.0000   1.0000
     1.0000   1.0000   1.0000   1.0000   1.0000   1.0000   1.0000   1.0000
     1.0000   1.0000   1.0000   1.0000   1.0000   1.0000   1.0000   1.0000
     1.0000   1.0000   1.0000   1.0000   1.0001   1.0001   1.0018   1.0018
     1.0018   1.0073   1.0073   1.0073   1.0221   1.0221   1.0221   1.0747
     1.0747   1.0747   0.8188   0.8188   0.8188   0.5304   0.5304   0.5304
     0.4956   0.4956   0.4956   0.4087   0.4087   0.0145   0.0145   0.0145
     0.0036   0.0034   0.0034   0.0034   0.0020   0.0020   0.0020   0.0001
     0.0001   0.0000   0.0000   0.0000   0.0000   0.0000   0.0000   0.0000
     0.0000   0.0000   0.0000   0.0000   0.0000   0.0000   0.0000   0.0000
     0.0000   0.0000   0.0000   0.0000   0.0000   0.0000   0.0000   0.0000
     0.0000   0.0000   0.0000   0.0000   0.0000   0.0000   0.0000   0.0000
     0.0000   0.0000   0.0000   0.0000   0.0000   0.0000   0.0000   0.0000
     0.0000   0.0000   0.0000   0.0000   0.0000   0.0000   0.0000   0.0000
     0.0000   0.0000   0.0000   0.0000   0.0000   0.0000   0.0000   0.0000
     0.0000   0.0000   0.0000   0.0000   0.0000   0.0000   0.0000   0.0000
     0.0000   0.0000   0.0000   0.0000   0.0000

          k = 0.0000 0.0000 0.1000 ( 62033 PWs)   bands (ev):

   -70.1587 -70.1489 -70.1486 -70.1486 -70.1396 -70.1396 -70.1394 -70.1300
   -70.1255 -70.0950 -70.0950 -70.0950 -70.0645 -70.0645 -70.0645 -70.0353
   -69.9992 -69.9991 -69.9972 -69.9971 -69.9971 -69.9864 -69.9864 -69.9863
   -69.9800 -69.9794 -69.9794 -69.9763 -69.8751 -69.8750 -69.8709 -69.8696
   -69.8696 -69.8695 -69.8639 -69.8639 -69.8639 -69.8636 -69.8635 -69.8635
   -69.8634 -69.8634 -69.8600 -69.8600 -69.8599 -69.8578 -69.7021 -69.7021
   -69.7020 -69.7012 -69.7012 -69.7012 -69.6196 -36.4181 -36.4180 -36.4180
   -36.4054 -36.4048 -36.4014 -36.4012 -36.3967 -36.3967 -36.3959 -36.3833
   -36.3828 -36.3828 -36.3793 -36.3793 -36.3792 -36.3717 -36.3712 -36.3532
   -36.3532 -36.3532 -36.2926 -36.2924 -36.2924 -36.2875 -36.2874 -36.2874
   -36.2569 -36.2385 -36.1937 -36.1922 -36.1922 -36.1759 -36.1759 -36.1753
   -36.1381 -36.1381 -36.1323 -36.1299 -36.1229 -36.1229 -36.1215 -36.1010
   -36.0889 -36.0889 -36.0889 -36.0861 -36.0855 -36.0819 -36.0700 -36.0694
   -36.0694 -36.0660 -36.0552 -36.0552 -36.0551 -36.0507 -36.0507 -36.0497
   -36.0470 -36.0424 -36.0424 -36.0357 -36.0324 -36.0149 -36.0149 -36.0149
   -36.0110 -36.0097 -35.9836 -35.9836 -35.9836 -35.9810 -35.9810 -35.9806
   -35.9733 -35.9724 -35.9711 -35.9711 -35.9622 -35.9568 -35.9568 -35.9544
   -35.9438 -35.9435 -35.9377 -35.9377 -35.9374 -35.9341 -35.9317 -35.9305
[...]
     atom   41 type  1   force =     0.00000000    1.96375616    0.00000000
     atom   42 type  1   force =   -15.48012789   -0.00000000   15.48012789
     atom   43 type  1   force =     0.00000000   -1.80883935    1.80883935
     atom   44 type  1   force =   -16.73757272   -0.00000000    0.00000000
     atom   45 type  1   force =     0.00000000   -1.80883935   -1.80883935
     atom   46 type  1   force =   -15.48012789   -0.00000000  -15.48012789
     atom   47 type  1   force =    -0.00000000   -1.96375616    0.00000000
     atom   48 type  1   force =   -13.16726443  -13.16726443   13.16726443
     atom   49 type  1   force =     0.00000000    0.00000000    1.96375616
     atom   50 type  1   force =   -15.48012789  -15.48012789    0.00000000
     atom   51 type  1   force =     0.00000000    0.00000000   -1.96375616
     atom   52 type  1   force =   -13.16726443  -13.16726443  -13.16726443
     atom   53 type  1   force =     0.00000000    0.00000000    0.00000000
     The core correction contribution to forces
     atom    1 type  1   force =     0.00233785    0.00233785    0.00233785
     atom    2 type  1   force =    -0.00098575   -0.00098575   -0.00098575
     atom    3 type  1   force =     0.00256030    0.00256030   -0.00000000
     atom    4 type  1   force =    -0.00098575   -0.00098575    0.00098575
     atom    5 type  1   force =     0.00233785    0.00233785   -0.00233785
     atom    6 type  1   force =    -0.00163709   -0.00163709   -0.00000000
     atom    7 type  1   force =     0.00256030   -0.00000000    0.00256030
     atom    8 type  1   force =    -0.00098575    0.00098575   -0.00098575
     atom    9 type  1   force =     0.00371670    0.00000000   -0.00000000
     atom   10 type  1   force =    -0.00098575    0.00098575    0.00098575
     atom   11 type  1   force =     0.00256030   -0.00000000   -0.00256030
     atom   12 type  1   force =    -0.00163709    0.00163709   -0.00000000
     atom   13 type  1   force =     0.00233785   -0.00233785    0.00233785
     atom   14 type  1   force =    -0.00163709   -0.00000000   -0.00163709
     atom   15 type  1   force =     0.00256030   -0.00256030   -0.00000000
     atom   16 type  1   force =    -0.00163709   -0.00000000    0.00163709
     atom   17 type  1   force =     0.00233785   -0.00233785   -0.00233785
     atom   18 type  1   force =     0.00050869    0.00000000    0.00000000
     atom   19 type  1   force =    -0.00000000    0.00256030    0.00256030
     atom   20 type  1   force =     0.00098575   -0.00098575   -0.00098575
     atom   21 type  1   force =     0.00000000    0.00371670   -0.00000000
     atom   22 type  1   force =     0.00098575   -0.00098575    0.00098575
     atom   23 type  1   force =    -0.00000000    0.00256030   -0.00256030
     atom   24 type  1   force =     0.00163709   -0.00163709   -0.00000000
     atom   25 type  1   force =    -0.00000000   -0.00000000    0.00371670
     atom   26 type  1   force =     0.00098575    0.00098575   -0.00098575
     atom   27 type  1   force =     0.00098575    0.00098575    0.00098575
     atom   28 type  1   force =    -0.00000000   -0.00000000   -0.00371670
     atom   29 type  1   force =     0.00163709    0.00163709    0.00000000
     atom   30 type  1   force =    -0.00000000   -0.00256030    0.00256030
     atom   31 type  1   force =     0.00163709    0.00000000   -0.00163709
     atom   32 type  1   force =    -0.00000000   -0.00371670   -0.00000000
     atom   33 type  1   force =     0.00163709    0.00000000    0.00163709
     atom   34 type  1   force =    -0.00000000   -0.00256030   -0.00256030
     atom   35 type  1   force =    -0.00050869   -0.00000000    0.00000000
     atom   36 type  1   force =    -0.00233785    0.00233785    0.00233785
     atom   37 type  1   force =    -0.00000000   -0.00163709   -0.00163709
     atom   38 type  1   force =    -0.00256030    0.00256030   -0.00000000
     atom   39 type  1   force =    -0.00000000   -0.00163709    0.00163709
     atom   40 type  1   force =    -0.00233785    0.00233785   -0.00233785
     atom   41 type  1   force =     0.00000000    0.00050869    0.00000000
     atom   42 type  1   force =    -0.00256030    0.00000000    0.00256030
     atom   43 type  1   force =     0.00000000    0.00163709   -0.00163709
     atom   44 type  1   force =    -0.00371670   -0.00000000   -0.00000000
     atom   45 type  1   force =    -0.00000000    0.00163709    0.00163709
     atom   46 type  1   force =    -0.00256030    0.00000000   -0.00256030
     atom   47 type  1   force =    -0.00000000   -0.00050869    0.00000000
     atom   48 type  1   force =    -0.00233785   -0.00233785    0.00233785
     atom   49 type  1   force =    -0.00000000   -0.00000000    0.00050869
     atom   50 type  1   force =    -0.00256030   -0.00256030   -0.00000000
     atom   51 type  1   force =     0.00000000   -0.00000000   -0.00050869
     atom   52 type  1   force =    -0.00233785   -0.00233785   -0.00233785
     atom   53 type  1   force =    -0.00000000   -0.00000000   -0.00000000
     The Hubbard contrib.    to forces
     atom    1 type  1   force =     0.00000000    0.00000000    0.00000000
     atom    2 type  1   force =     0.00000000    0.00000000    0.00000000
     atom    3 type  1   force =     0.00000000    0.00000000    0.00000000
     atom    4 type  1   force =     0.00000000    0.00000000    0.00000000
     atom    5 type  1   force =     0.00000000    0.00000000    0.00000000
     atom    6 type  1   force =     0.00000000    0.00000000    0.00000000
     atom    7 type  1   force =     0.00000000    0.00000000    0.00000000
     atom    8 type  1   force =     0.00000000    0.00000000    0.00000000
     atom    9 type  1   force =     0.00000000    0.00000000    0.00000000
     atom   10 type  1   force =     0.00000000    0.00000000    0.00000000
     atom   11 type  1   force =     0.00000000    0.00000000    0.00000000
     atom   12 type  1   force =     0.00000000    0.00000000    0.00000000
     atom   13 type  1   force =     0.00000000    0.00000000    0.00000000
     atom   14 type  1   force =     0.00000000    0.00000000    0.00000000
     atom   15 type  1   force =     0.00000000    0.00000000    0.00000000
     atom   16 type  1   force =     0.00000000    0.00000000    0.00000000
     atom   17 type  1   force =     0.00000000    0.00000000    0.00000000
     atom   18 type  1   force =     0.00000000    0.00000000    0.00000000
     atom   19 type  1   force =     0.00000000    0.00000000    0.00000000
     atom   20 type  1   force =     0.00000000    0.00000000    0.00000000
     atom   21 type  1   force =     0.00000000    0.00000000    0.00000000
     atom   22 type  1   force =     0.00000000    0.00000000    0.00000000
     atom   23 type  1   force =     0.00000000    0.00000000    0.00000000
     atom   24 type  1   force =     0.00000000    0.00000000    0.00000000
     atom   25 type  1   force =     0.00000000    0.00000000    0.00000000
     atom   26 type  1   force =     0.00000000    0.00000000    0.00000000
     atom   27 type  1   force =     0.00000000    0.00000000    0.00000000
     atom   28 type  1   force =     0.00000000    0.00000000    0.00000000
     atom   29 type  1   force =     0.00000000    0.00000000    0.00000000
     atom   30 type  1   force =     0.00000000    0.00000000    0.00000000
     atom   31 type  1   force =     0.00000000    0.00000000    0.00000000
     atom   32 type  1   force =     0.00000000    0.00000000    0.00000000
     atom   33 type  1   force =     0.00000000    0.00000000    0.00000000
     atom   34 type  1   force =     0.00000000    0.00000000    0.00000000
     atom   35 type  1   force =     0.00000000    0.00000000    0.00000000
     atom   36 type  1   force =     0.00000000    0.00000000    0.00000000
     atom   37 type  1   force =     0.00000000    0.00000000    0.00000000
     atom   38 type  1   force =     0.00000000    0.00000000    0.00000000
     atom   39 type  1   force =     0.00000000    0.00000000    0.00000000
     atom   40 type  1   force =     0.00000000    0.00000000    0.00000000
     atom   41 type  1   force =     0.00000000    0.00000000    0.00000000
     atom   42 type  1   force =     0.00000000    0.00000000    0.00000000
     atom   43 type  1   force =     0.00000000    0.00000000    0.00000000
     atom   44 type  1   force =     0.00000000    0.00000000    0.00000000
     atom   45 type  1   force =     0.00000000    0.00000000    0.00000000
     atom   46 type  1   force =     0.00000000    0.00000000    0.00000000
     atom   47 type  1   force =     0.00000000    0.00000000    0.00000000
     atom   48 type  1   force =     0.00000000    0.00000000    0.00000000
     atom   49 type  1   force =     0.00000000    0.00000000    0.00000000
     atom   50 type  1   force =     0.00000000    0.00000000    0.00000000
     atom   51 type  1   force =     0.00000000    0.00000000    0.00000000
     atom   52 type  1   force =     0.00000000    0.00000000    0.00000000
     atom   53 type  1   force =     0.00000000    0.00000000    0.00000000
     The SCF correction term to forces
     atom    1 type  1   force =    -0.00001787   -0.00001787   -0.00001787
     atom    2 type  1   force =     0.00000805    0.00000805    0.00000805
     atom    3 type  1   force =     0.00000021    0.00000021    0.00000000
     atom    4 type  1   force =     0.00000805    0.00000805   -0.00000805
     atom    5 type  1   force =    -0.00001787   -0.00001787    0.00001787
     atom    6 type  1   force =    -0.00002085   -0.00002085    0.00000000
     atom    7 type  1   force =     0.00000021    0.00000000    0.00000021
     atom    8 type  1   force =     0.00000805   -0.00000805    0.00000805
     atom    9 type  1   force =     0.00001482    0.00000000   -0.00000000
     atom   10 type  1   force =     0.00000805   -0.00000805   -0.00000805
     atom   11 type  1   force =     0.00000021   -0.00000000   -0.00000021
     atom   12 type  1   force =    -0.00002085    0.00002085   -0.00000000
     atom   13 type  1   force =    -0.00001787    0.00001787   -0.00001787
     atom   14 type  1   force =    -0.00002085   -0.00000000   -0.00002085
     atom   15 type  1   force =     0.00000021   -0.00000021   -0.00000000
     atom   16 type  1   force =    -0.00002085   -0.00000000    0.00002085
     atom   17 type  1   force =    -0.00001787    0.00001787    0.00001787
     atom   18 type  1   force =    -0.00004192   -0.00000000   -0.00000000
     atom   19 type  1   force =     0.00000000    0.00000021    0.00000021
     atom   20 type  1   force =    -0.00000805    0.00000805    0.00000805
     atom   21 type  1   force =     0.00000000    0.00001482   -0.00000000
     atom   22 type  1   force =    -0.00000805    0.00000805   -0.00000805
     atom   23 type  1   force =     0.00000000    0.00000021   -0.00000021
     atom   24 type  1   force =     0.00002085   -0.00002085   -0.00000000
     atom   25 type  1   force =    -0.00000000    0.00000000    0.00001482
     atom   26 type  1   force =    -0.00000805   -0.00000805    0.00000805
     atom   27 type  1   force =    -0.00000805   -0.00000805   -0.00000805
     atom   28 type  1   force =     0.00000000   -0.00000000   -0.00001482
     atom   29 type  1   force =     0.00002085    0.00002085   -0.00000000
     atom   30 type  1   force =    -0.00000000   -0.00000021    0.00000021
     atom   31 type  1   force =     0.00002085   -0.00000000   -0.00002085
     atom   32 type  1   force =     0.00000000   -0.00001482   -0.00000000
     atom   33 type  1   force =     0.00002085   -0.00000000    0.00002085
     atom   34 type  1   force =    -0.00000000   -0.00000021   -0.00000021
     atom   35 type  1   force =     0.00004192    0.00000000   -0.00000000
     atom   36 type  1   force =     0.00001787   -0.00001787   -0.00001787
     atom   37 type  1   force =    -0.00000000   -0.00002085   -0.00002085
     atom   38 type  1   force =    -0.00000021    0.00000021    0.00000000
     atom   39 type  1   force =    -0.00000000   -0.00002085    0.00002085
     atom   40 type  1   force =     0.00001787   -0.00001787    0.00001787
     atom   41 type  1   force =    -0.00000000   -0.00004192   -0.00000000
     atom   42 type  1   force =    -0.00000021   -0.00000000    0.00000021
     atom   43 type  1   force =    -0.00000000    0.00002085   -0.00002085
     atom   44 type  1   force =    -0.00001482    0.00000000    0.00000000
     atom   45 type  1   force =    -0.00000000    0.00002085    0.00002085
     atom   46 type  1   force =    -0.00000021   -0.00000000   -0.00000021
     atom   47 type  1   force =    -0.00000000    0.00004192   -0.00000000
     atom   48 type  1   force =     0.00001787    0.00001787   -0.00001787
     atom   49 type  1   force =    -0.00000000   -0.00000000   -0.00004192
     atom   50 type  1   force =    -0.00000021   -0.00000021   -0.00000000
     atom   51 type  1   force =    -0.00000000   -0.00000000    0.00004192
     atom   52 type  1   force =     0.00001787    0.00001787    0.00001787
     atom   53 type  1   force =     0.00000000    0.00000000    0.00000000

     Total force =     0.003262     Total SCF correction =     0.000178


     Computing stress (Cartesian axis) and pressure

          total   stress  (Ry/bohr**3)                   (kbar)     P=     -241.72
  -0.00164320   0.00000000   0.00000000         -241.72        0.00        0.00
   0.00000000  -0.00164320   0.00000000            0.00     -241.72        0.00
   0.00000000   0.00000000  -0.00164320            0.00        0.00     -241.72

     kinetic stress (kbar)  93637.72      0.00      0.00
                                0.00  93637.72      0.00
                                0.00      0.00  93637.72

     local   stress (kbar)   7580.15     -0.00     -0.00
                               -0.00   7580.15      0.00
                               -0.00      0.00   7580.15

     nonloc. stress (kbar) -25756.64      0.00      0.00
                                0.00 -25756.64      0.00
                                0.00      0.00 -25756.64

     hartree stress (kbar)  41882.00      0.00     -0.00
                                0.00  41882.00     -0.00
                               -0.00     -0.00  41882.00

     exc-cor stress (kbar) -13380.78      0.00     -0.00
                                0.00 -13380.78     -0.00
                               -0.00     -0.00 -13380.78

     corecor stress (kbar)  -2574.82      0.00      0.00
                                0.00  -2574.82      0.00
                                0.00      0.00  -2574.82

     ewald   stress (kbar)-101629.35      0.00     -0.00
                                0.00-101629.35     -0.00
                               -0.00     -0.00-101629.35

     hubbard stress (kbar)      0.00      0.00      0.00
                                0.00      0.00      0.00
                                0.00      0.00      0.00

     DFT-D   stress (kbar)      0.00      0.00      0.00
                                0.00      0.00      0.00
                                0.00      0.00      0.00

     XDM     stress (kbar)      0.00      0.00      0.00
                                0.00      0.00      0.00
                                0.00      0.00      0.00

     dft-nl  stress (kbar)      0.00      0.00      0.00
                                0.00      0.00      0.00
                                0.00      0.00      0.00

     TS-vdW  stress (kbar)      0.00      0.00      0.00
                                0.00      0.00      0.00
                                0.00      0.00      0.00

     MDB     stress (kbar)      0.00      0.00      0.00
                                0.00      0.00      0.00
                                0.00      0.00      0.00

     3D-RISM stress (kbar)      0.00      0.00      0.00
                                0.00      0.00      0.00
                                0.00      0.00      0.00

     Message from routine punch:
     Nothing written, as per user request (disk_io='none')

     init_run     :     36.60s CPU     38.53s WALL (       1 calls)
     electrons    :   3425.33s CPU   3587.83s WALL (       1 calls)
     forces       :     18.44s CPU     19.23s WALL (       1 calls)
     stress       :    399.40s CPU    408.63s WALL (       1 calls)

     Called by init_run:
     wfcinit      :     33.10s CPU     34.49s WALL (       1 calls)
     wfcinit:atom :      0.15s CPU      0.28s WALL (       7 calls)
     wfcinit:wfcr :     31.81s CPU     32.85s WALL (       7 calls)
     potinit      :      0.97s CPU      1.19s WALL (       1 calls)
     hinit0       :      1.09s CPU      1.16s WALL (       1 calls)

     Called by electrons:
     c_bands      :   2856.16s CPU   2983.01s WALL (      35 calls)
     sum_band     :    538.42s CPU    568.79s WALL (      35 calls)
     v_of_rho     :     17.22s CPU     19.82s WALL (      36 calls)
     v_h          :      1.09s CPU      1.32s WALL (      36 calls)
     v_xc         :     16.78s CPU     19.22s WALL (      38 calls)
     newd         :      6.31s CPU      7.82s WALL (      36 calls)
     PAW_pot      :      4.20s CPU      4.69s WALL (      36 calls)
     mix_rho      :      0.68s CPU      0.91s WALL (      35 calls)

     Called by c_bands:
     init_us_2    :     38.09s CPU     38.84s WALL (     511 calls)
     cegterg      :   2677.34s CPU   2781.83s WALL (     245 calls)

     Called by sum_band:
     sum_band:wei :      0.34s CPU      0.39s WALL (      35 calls)
     sum_band:loo :    497.22s CPU    519.19s WALL (      35 calls)
     sum_band:buf :      5.45s CPU      6.03s WALL (     245 calls)
     sum_band:ini :     12.88s CPU     13.08s WALL (     245 calls)
     sum_band:cal :    127.27s CPU    133.02s WALL (     245 calls)
     sum_band:bec :      1.56s CPU      1.59s WALL (     245 calls)
     addusdens    :      4.50s CPU      6.59s WALL (      35 calls)
                                        0.00s GPU  (      35 calls)
     addusd:skk   :      0.37s CPU      0.64s WALL (      35 calls)
                                        0.00s GPU  (      35 calls)

     Called by *egterg:
     cdiaghg      :    111.94s CPU    126.56s WALL (     756 calls)
     cegterg:over :    250.67s CPU    258.23s WALL (     511 calls)
     cegterg:upda :    151.94s CPU    158.81s WALL (     511 calls)
     cegterg:last :    259.08s CPU    266.21s WALL (     354 calls)
     cdiaghg:chol :      9.20s CPU     10.62s WALL (     756 calls)
     cdiaghg:inve :      9.69s CPU     11.32s WALL (     756 calls)
     cdiaghg:para :     23.97s CPU     29.57s WALL (    1512 calls)
     h_psi        :   1572.10s CPU   1624.27s WALL (     763 calls)
     s_psi        :    242.92s CPU    245.72s WALL (     763 calls)
     g_psi        :      3.23s CPU      3.27s WALL (     511 calls)

     Called by h_psi:
     h_psi:calbec :    257.74s CPU    266.55s WALL (     763 calls)
     vloc_psi     :   1061.96s CPU   1094.42s WALL (     763 calls)
     add_vuspsi   :    242.69s CPU    245.06s WALL (     763 calls)

     General routines
     calbec       :    423.60s CPU    441.94s WALL (    1043 calls)
     fft          :     11.17s CPU     13.62s WALL (     491 calls)
     ffts         :      0.76s CPU      0.93s WALL (      71 calls)
     fftw         :    747.66s CPU    785.09s WALL (  641903 calls)
     interpolate  :      1.67s CPU      1.94s WALL (      36 calls)

     Parallel routines

     PAW routines
     PAW_pot      :      4.20s CPU      4.69s WALL (      36 calls)
     PAW_symme    :      0.62s CPU      0.76s WALL (      71 calls)

     PWSCF        :   3880.14s CPU   4055.77s WALL


   This run was terminated on:  18:37:24  29May2025            

=------------------------------------------------------------------------------=
   JOB DONE.
=------------------------------------------------------------------------------=
