
     Program PWSCF v.7.3.1 starts on 24May2025 at 11:17:31 

     This program is part of the open-source Quantum ESPRESSO suite
     for quantum simulation of materials; please cite
         "P. Giannozzi et al., J. Phys.:Condens. Matter 21 395502 (2009);
         "P. Giannozzi et al., J. Phys.:Condens. Matter 29 465901 (2017);
         "P. Giannozzi et al., J. Chem. Phys. 152 154105 (2020);
          URL http://www.quantum-espresso.org", 
     in publications or presentations arising from this work. More details at
     http://www.quantum-espresso.org/quote

     Parallel version (MPI & OpenMP), running on      32 processor cores
     Number of MPI processes:                32
     Threads/MPI process:                     1

     MPI processes distributed on     1 nodes
     409772 MiB available memory on the printing compute node when the environment starts

     Waiting for input...
     Reading input from standard input

     Current dimensions of program PWSCF are:
     Max number of different atomic species (ntypx) = 10
     Max number of k-points (npk) =  40000
     Max angular momentum in pseudopotentials (lmaxx) =  4
     file Fe.pbe-spn-kjpaw_psl.1.0.0.UPF: wavefunction(s)  3P 3D renormalized
     Found identity + (  0.2500  0.2500  0.2500) symmetry
     This is a supercell, fractional translations are disabled
     Message from routine setup:
     using ibrav=0 with symmetry is DISCOURAGED, use correct ibrav instead

     K-points division:     npool     =       4
     R & G space division:  proc/nbgrp/npool/nimage =       8
     Subspace diagonalization in iterative solution of the eigenvalue problem:
     one sub-group per band group will be used
     ELPA distributed-memory algorithm (size of sub-group:  2*  2 procs)


     Parallelization info
     --------------------
     sticks:   dense  smooth     PW     G-vecs:    dense   smooth      PW
     Min        1262     420    117                95454    18370    2670
     Max        1263     421    119                95459    18371    2671
     Sum       10097    3365    941               763649   146965   21367

     Using Slab Decomposition



     bravais-lattice index     =            0
     lattice parameter (alat)  =      10.8398  a.u.
     unit-cell volume          =    1273.7068 (a.u.)^3
     number of atoms/cell      =           16
     number of atomic types    =            1
     number of electrons       =       256.00
     number of Kohn-Sham states=          154
     kinetic-energy cutoff     =      90.0000  Ry
     charge density cutoff     =    1080.0000  Ry
     scf convergence threshold =      1.0E-08
     mixing beta               =       0.2000
     number of iterations used =            8  plain     mixing
     Exchange-correlation= SLA  PW   PBX  PBC
                           (   1   4   3   4   0   0   0)

     celldm(1)=  10.839847  celldm(2)=   0.000000  celldm(3)=   0.000000
     celldm(4)=   0.000000  celldm(5)=   0.000000  celldm(6)=   0.000000

     crystal axes: (cart. coord. in units of alat)
               a(1) = (   1.000000   0.000000   0.000000 )  
               a(2) = (   0.000000   1.000000   0.000000 )  
               a(3) = (   0.000000   0.000000   1.000000 )  

     reciprocal axes: (cart. coord. in units 2 pi/alat)
               b(1) = (  1.000000  0.000000  0.000000 )  
               b(2) = (  0.000000  1.000000  0.000000 )  
               b(3) = (  0.000000  0.000000  1.000000 )  


     PseudoPot. # 1 for Fe read from file:
     ./pseudo/Fe.pbe-spn-kjpaw_psl.1.0.0.UPF
     MD5 check sum: fc81f059e5c5069939230b1155715ae8
     Pseudo is Projector augmented-wave + core cor, Zval = 16.0
     Generated using &quot;atomic&quot; code by A. Dal Corso  v.6.3
     Shape of augmentation charge: PSQ
     Using radial grid of 1191 points,  6 beta functions with: 
                l(1) =   0
                l(2) =   0
                l(3) =   1
                l(4) =   1
                l(5) =   2
                l(6) =   2
     Q(r) pseudized with 0 coefficients 


     atomic species   valence    mass     pseudopotential
     Fe               16.00    55.84500     Fe( 1.00)

     Starting magnetic structure 
     atomic species   magnetization
     Fe              0.400

     48 Sym. Ops., with inversion, found


                                    s                        frac. trans.

      isym =  1     identity                                     

 cryst.   s( 1) = (     1          0          0      )
                  (     0          1          0      )
                  (     0          0          1      )

 cart.    s( 1) = (  1.0000000  0.0000000  0.0000000 )
                  (  0.0000000  1.0000000  0.0000000 )
                  (  0.0000000  0.0000000  1.0000000 )


      isym =  2     180 deg rotation - cart. axis [0,0,1]        

 cryst.   s( 2) = (    -1          0          0      )
                  (     0         -1          0      )
                  (     0          0          1      )

 cart.    s( 2) = ( -1.0000000  0.0000000  0.0000000 )
                  (  0.0000000 -1.0000000  0.0000000 )
                  (  0.0000000  0.0000000  1.0000000 )


      isym =  3     180 deg rotation - cart. axis [0,1,0]        

 cryst.   s( 3) = (    -1          0          0      )
                  (     0          1          0      )
                  (     0          0         -1      )

 cart.    s( 3) = ( -1.0000000  0.0000000  0.0000000 )
                  (  0.0000000  1.0000000  0.0000000 )
                  (  0.0000000  0.0000000 -1.0000000 )


      isym =  4     180 deg rotation - cart. axis [1,0,0]        

 cryst.   s( 4) = (     1          0          0      )
                  (     0         -1          0      )
                  (     0          0         -1      )

 cart.    s( 4) = (  1.0000000  0.0000000  0.0000000 )
                  (  0.0000000 -1.0000000  0.0000000 )
                  (  0.0000000  0.0000000 -1.0000000 )


      isym =  5     180 deg rotation - cart. axis [1,1,0]        

 cryst.   s( 5) = (     0          1          0      )
                  (     1          0          0      )
                  (     0          0         -1      )

 cart.    s( 5) = (  0.0000000  1.0000000  0.0000000 )
                  (  1.0000000  0.0000000  0.0000000 )
                  (  0.0000000  0.0000000 -1.0000000 )


      isym =  6     180 deg rotation - cart. axis [1,-1,0]       

 cryst.   s( 6) = (     0         -1          0      )
                  (    -1          0          0      )
                  (     0          0         -1      )

 cart.    s( 6) = (  0.0000000 -1.0000000  0.0000000 )
                  ( -1.0000000  0.0000000  0.0000000 )
                  (  0.0000000  0.0000000 -1.0000000 )


      isym =  7      90 deg rotation - cart. axis [0,0,-1]       

 cryst.   s( 7) = (     0         -1          0      )
                  (     1          0          0      )
                  (     0          0          1      )

 cart.    s( 7) = (  0.0000000  1.0000000  0.0000000 )
                  ( -1.0000000  0.0000000  0.0000000 )
                  (  0.0000000  0.0000000  1.0000000 )


      isym =  8      90 deg rotation - cart. axis [0,0,1]        

 cryst.   s( 8) = (     0          1          0      )
                  (    -1          0          0      )
                  (     0          0          1      )

 cart.    s( 8) = (  0.0000000 -1.0000000  0.0000000 )
                  (  1.0000000  0.0000000  0.0000000 )
                  (  0.0000000  0.0000000  1.0000000 )


      isym =  9     180 deg rotation - cart. axis [1,0,1]        

 cryst.   s( 9) = (     0          0          1      )
                  (     0         -1          0      )
                  (     1          0          0      )

 cart.    s( 9) = (  0.0000000  0.0000000  1.0000000 )
                  (  0.0000000 -1.0000000  0.0000000 )
                  (  1.0000000  0.0000000  0.0000000 )


      isym = 10     180 deg rotation - cart. axis [-1,0,1]       

 cryst.   s(10) = (     0          0         -1      )
                  (     0         -1          0      )
                  (    -1          0          0      )

 cart.    s(10) = (  0.0000000  0.0000000 -1.0000000 )
                  (  0.0000000 -1.0000000  0.0000000 )
                  ( -1.0000000  0.0000000  0.0000000 )


      isym = 11      90 deg rotation - cart. axis [0,1,0]        

 cryst.   s(11) = (     0          0         -1      )
                  (     0          1          0      )
                  (     1          0          0      )

 cart.    s(11) = (  0.0000000  0.0000000  1.0000000 )
                  (  0.0000000  1.0000000  0.0000000 )
                  ( -1.0000000  0.0000000  0.0000000 )


      isym = 12      90 deg rotation - cart. axis [0,-1,0]       

 cryst.   s(12) = (     0          0          1      )
                  (     0          1          0      )
                  (    -1          0          0      )

 cart.    s(12) = (  0.0000000  0.0000000 -1.0000000 )
                  (  0.0000000  1.0000000  0.0000000 )
                  (  1.0000000  0.0000000  0.0000000 )


      isym = 13     180 deg rotation - cart. axis [0,1,1]        

 cryst.   s(13) = (    -1          0          0      )
                  (     0          0          1      )
                  (     0          1          0      )

 cart.    s(13) = ( -1.0000000  0.0000000  0.0000000 )
                  (  0.0000000  0.0000000  1.0000000 )
                  (  0.0000000  1.0000000  0.0000000 )


      isym = 14     180 deg rotation - cart. axis [0,1,-1]       

 cryst.   s(14) = (    -1          0          0      )
                  (     0          0         -1      )
                  (     0         -1          0      )

 cart.    s(14) = ( -1.0000000  0.0000000  0.0000000 )
                  (  0.0000000  0.0000000 -1.0000000 )
                  (  0.0000000 -1.0000000  0.0000000 )


      isym = 15      90 deg rotation - cart. axis [-1,0,0]       

 cryst.   s(15) = (     1          0          0      )
                  (     0          0         -1      )
                  (     0          1          0      )

 cart.    s(15) = (  1.0000000  0.0000000  0.0000000 )
                  (  0.0000000  0.0000000  1.0000000 )
                  (  0.0000000 -1.0000000  0.0000000 )


      isym = 16      90 deg rotation - cart. axis [1,0,0]        

 cryst.   s(16) = (     1          0          0      )
                  (     0          0          1      )
                  (     0         -1          0      )

 cart.    s(16) = (  1.0000000  0.0000000  0.0000000 )
                  (  0.0000000  0.0000000 -1.0000000 )
                  (  0.0000000  1.0000000  0.0000000 )


      isym = 17     120 deg rotation - cart. axis [-1,-1,-1]     

 cryst.   s(17) = (     0          0          1      )
                  (     1          0          0      )
                  (     0          1          0      )

 cart.    s(17) = (  0.0000000  1.0000000  0.0000000 )
                  (  0.0000000  0.0000000  1.0000000 )
                  (  1.0000000  0.0000000  0.0000000 )


      isym = 18     120 deg rotation - cart. axis [-1,1,1]       

 cryst.   s(18) = (     0          0         -1      )
                  (    -1          0          0      )
                  (     0          1          0      )

 cart.    s(18) = (  0.0000000 -1.0000000  0.0000000 )
                  (  0.0000000  0.0000000  1.0000000 )
                  ( -1.0000000  0.0000000  0.0000000 )


      isym = 19     120 deg rotation - cart. axis [1,1,-1]       

 cryst.   s(19) = (     0          0         -1      )
                  (     1          0          0      )
                  (     0         -1          0      )

 cart.    s(19) = (  0.0000000  1.0000000  0.0000000 )
                  (  0.0000000  0.0000000 -1.0000000 )
                  ( -1.0000000  0.0000000  0.0000000 )


      isym = 20     120 deg rotation - cart. axis [1,-1,1]       

 cryst.   s(20) = (     0          0          1      )
                  (    -1          0          0      )
                  (     0         -1          0      )

 cart.    s(20) = (  0.0000000 -1.0000000  0.0000000 )
                  (  0.0000000  0.0000000 -1.0000000 )
                  (  1.0000000  0.0000000  0.0000000 )


      isym = 21     120 deg rotation - cart. axis [1,1,1]        

 cryst.   s(21) = (     0          1          0      )
                  (     0          0          1      )
                  (     1          0          0      )

 cart.    s(21) = (  0.0000000  0.0000000  1.0000000 )
                  (  1.0000000  0.0000000  0.0000000 )
                  (  0.0000000  1.0000000  0.0000000 )


      isym = 22     120 deg rotation - cart. axis [-1,1,-1]      

 cryst.   s(22) = (     0         -1          0      )
                  (     0          0         -1      )
                  (     1          0          0      )

 cart.    s(22) = (  0.0000000  0.0000000  1.0000000 )
                  ( -1.0000000  0.0000000  0.0000000 )
                  (  0.0000000 -1.0000000  0.0000000 )


      isym = 23     120 deg rotation - cart. axis [1,-1,-1]      

 cryst.   s(23) = (     0         -1          0      )
                  (     0          0          1      )
                  (    -1          0          0      )

 cart.    s(23) = (  0.0000000  0.0000000 -1.0000000 )
                  ( -1.0000000  0.0000000  0.0000000 )
                  (  0.0000000  1.0000000  0.0000000 )


      isym = 24     120 deg rotation - cart. axis [-1,-1,1]      

 cryst.   s(24) = (     0          1          0      )
                  (     0          0         -1      )
                  (    -1          0          0      )

 cart.    s(24) = (  0.0000000  0.0000000 -1.0000000 )
                  (  1.0000000  0.0000000  0.0000000 )
                  (  0.0000000 -1.0000000  0.0000000 )


      isym = 25     inversion                                    

 cryst.   s(25) = (    -1          0          0      )
                  (     0         -1          0      )
                  (     0          0         -1      )

 cart.    s(25) = ( -1.0000000  0.0000000  0.0000000 )
                  (  0.0000000 -1.0000000  0.0000000 )
                  (  0.0000000  0.0000000 -1.0000000 )


      isym = 26     inv. 180 deg rotation - cart. axis [0,0,1]   

 cryst.   s(26) = (     1          0          0      )
                  (     0          1          0      )
                  (     0          0         -1      )

 cart.    s(26) = (  1.0000000  0.0000000  0.0000000 )
                  (  0.0000000  1.0000000  0.0000000 )
                  (  0.0000000  0.0000000 -1.0000000 )


      isym = 27     inv. 180 deg rotation - cart. axis [0,1,0]   

 cryst.   s(27) = (     1          0          0      )
                  (     0         -1          0      )
                  (     0          0          1      )

 cart.    s(27) = (  1.0000000  0.0000000  0.0000000 )
                  (  0.0000000 -1.0000000  0.0000000 )
                  (  0.0000000  0.0000000  1.0000000 )


      isym = 28     inv. 180 deg rotation - cart. axis [1,0,0]   

 cryst.   s(28) = (    -1          0          0      )
                  (     0          1          0      )
                  (     0          0          1      )

 cart.    s(28) = ( -1.0000000  0.0000000  0.0000000 )
                  (  0.0000000  1.0000000  0.0000000 )
                  (  0.0000000  0.0000000  1.0000000 )


      isym = 29     inv. 180 deg rotation - cart. axis [1,1,0]   

 cryst.   s(29) = (     0         -1          0      )
                  (    -1          0          0      )
                  (     0          0          1      )

 cart.    s(29) = (  0.0000000 -1.0000000  0.0000000 )
                  ( -1.0000000  0.0000000  0.0000000 )
                  (  0.0000000  0.0000000  1.0000000 )


      isym = 30     inv. 180 deg rotation - cart. axis [1,-1,0]  

 cryst.   s(30) = (     0          1          0      )
                  (     1          0          0      )
                  (     0          0          1      )

 cart.    s(30) = (  0.0000000  1.0000000  0.0000000 )
                  (  1.0000000  0.0000000  0.0000000 )
                  (  0.0000000  0.0000000  1.0000000 )


      isym = 31     inv.  90 deg rotation - cart. axis [0,0,-1]  

 cryst.   s(31) = (     0          1          0      )
                  (    -1          0          0      )
                  (     0          0         -1      )

 cart.    s(31) = (  0.0000000 -1.0000000  0.0000000 )
                  (  1.0000000  0.0000000  0.0000000 )
                  (  0.0000000  0.0000000 -1.0000000 )


      isym = 32     inv.  90 deg rotation - cart. axis [0,0,1]   

 cryst.   s(32) = (     0         -1          0      )
                  (     1          0          0      )
                  (     0          0         -1      )

 cart.    s(32) = (  0.0000000  1.0000000  0.0000000 )
                  ( -1.0000000  0.0000000  0.0000000 )
                  (  0.0000000  0.0000000 -1.0000000 )


      isym = 33     inv. 180 deg rotation - cart. axis [1,0,1]   

 cryst.   s(33) = (     0          0         -1      )
                  (     0          1          0      )
                  (    -1          0          0      )

 cart.    s(33) = (  0.0000000  0.0000000 -1.0000000 )
                  (  0.0000000  1.0000000  0.0000000 )
                  ( -1.0000000  0.0000000  0.0000000 )


      isym = 34     inv. 180 deg rotation - cart. axis [-1,0,1]  

 cryst.   s(34) = (     0          0          1      )
                  (     0          1          0      )
                  (     1          0          0      )

 cart.    s(34) = (  0.0000000  0.0000000  1.0000000 )
                  (  0.0000000  1.0000000  0.0000000 )
                  (  1.0000000  0.0000000  0.0000000 )


      isym = 35     inv.  90 deg rotation - cart. axis [0,1,0]   

 cryst.   s(35) = (     0          0          1      )
                  (     0         -1          0      )
                  (    -1          0          0      )

 cart.    s(35) = (  0.0000000  0.0000000 -1.0000000 )
                  (  0.0000000 -1.0000000  0.0000000 )
                  (  1.0000000  0.0000000  0.0000000 )


      isym = 36     inv.  90 deg rotation - cart. axis [0,-1,0]  

 cryst.   s(36) = (     0          0         -1      )
                  (     0         -1          0      )
                  (     1          0          0      )

 cart.    s(36) = (  0.0000000  0.0000000  1.0000000 )
                  (  0.0000000 -1.0000000  0.0000000 )
                  ( -1.0000000  0.0000000  0.0000000 )


      isym = 37     inv. 180 deg rotation - cart. axis [0,1,1]   

 cryst.   s(37) = (     1          0          0      )
                  (     0          0         -1      )
                  (     0         -1          0      )

 cart.    s(37) = (  1.0000000  0.0000000  0.0000000 )
                  (  0.0000000  0.0000000 -1.0000000 )
                  (  0.0000000 -1.0000000  0.0000000 )


      isym = 38     inv. 180 deg rotation - cart. axis [0,1,-1]  

 cryst.   s(38) = (     1          0          0      )
                  (     0          0          1      )
                  (     0          1          0      )

 cart.    s(38) = (  1.0000000  0.0000000  0.0000000 )
                  (  0.0000000  0.0000000  1.0000000 )
                  (  0.0000000  1.0000000  0.0000000 )


      isym = 39     inv.  90 deg rotation - cart. axis [-1,0,0]  

 cryst.   s(39) = (    -1          0          0      )
                  (     0          0          1      )
                  (     0         -1          0      )

 cart.    s(39) = ( -1.0000000  0.0000000  0.0000000 )
                  (  0.0000000  0.0000000 -1.0000000 )
                  (  0.0000000  1.0000000  0.0000000 )


      isym = 40     inv.  90 deg rotation - cart. axis [1,0,0]   

 cryst.   s(40) = (    -1          0          0      )
                  (     0          0         -1      )
                  (     0          1          0      )

 cart.    s(40) = ( -1.0000000  0.0000000  0.0000000 )
                  (  0.0000000  0.0000000  1.0000000 )
                  (  0.0000000 -1.0000000  0.0000000 )


      isym = 41     inv. 120 deg rotation - cart. axis [-1,-1,-1]

 cryst.   s(41) = (     0          0         -1      )
                  (    -1          0          0      )
                  (     0         -1          0      )

 cart.    s(41) = (  0.0000000 -1.0000000  0.0000000 )
                  (  0.0000000  0.0000000 -1.0000000 )
                  ( -1.0000000  0.0000000  0.0000000 )


      isym = 42     inv. 120 deg rotation - cart. axis [-1,1,1]  

 cryst.   s(42) = (     0          0          1      )
                  (     1          0          0      )
                  (     0         -1          0      )

 cart.    s(42) = (  0.0000000  1.0000000  0.0000000 )
                  (  0.0000000  0.0000000 -1.0000000 )
                  (  1.0000000  0.0000000  0.0000000 )


      isym = 43     inv. 120 deg rotation - cart. axis [1,1,-1]  

 cryst.   s(43) = (     0          0          1      )
                  (    -1          0          0      )
                  (     0          1          0      )

 cart.    s(43) = (  0.0000000 -1.0000000  0.0000000 )
                  (  0.0000000  0.0000000  1.0000000 )
                  (  1.0000000  0.0000000  0.0000000 )


      isym = 44     inv. 120 deg rotation - cart. axis [1,-1,1]  

 cryst.   s(44) = (     0          0         -1      )
                  (     1          0          0      )
                  (     0          1          0      )

 cart.    s(44) = (  0.0000000  1.0000000  0.0000000 )
                  (  0.0000000  0.0000000  1.0000000 )
                  ( -1.0000000  0.0000000  0.0000000 )


      isym = 45     inv. 120 deg rotation - cart. axis [1,1,1]   

 cryst.   s(45) = (     0         -1          0      )
                  (     0          0         -1      )
                  (    -1          0          0      )

 cart.    s(45) = (  0.0000000  0.0000000 -1.0000000 )
                  ( -1.0000000  0.0000000  0.0000000 )
                  (  0.0000000 -1.0000000  0.0000000 )


      isym = 46     inv. 120 deg rotation - cart. axis [-1,1,-1] 

 cryst.   s(46) = (     0          1          0      )
                  (     0          0          1      )
                  (    -1          0          0      )

 cart.    s(46) = (  0.0000000  0.0000000 -1.0000000 )
                  (  1.0000000  0.0000000  0.0000000 )
                  (  0.0000000  1.0000000  0.0000000 )


      isym = 47     inv. 120 deg rotation - cart. axis [1,-1,-1] 

 cryst.   s(47) = (     0          1          0      )
                  (     0          0         -1      )
                  (     1          0          0      )

 cart.    s(47) = (  0.0000000  0.0000000  1.0000000 )
                  (  1.0000000  0.0000000  0.0000000 )
                  (  0.0000000 -1.0000000  0.0000000 )


      isym = 48     inv. 120 deg rotation - cart. axis [-1,-1,1] 

 cryst.   s(48) = (     0         -1          0      )
                  (     0          0          1      )
                  (     1          0          0      )

 cart.    s(48) = (  0.0000000  0.0000000  1.0000000 )
                  ( -1.0000000  0.0000000  0.0000000 )
                  (  0.0000000  1.0000000  0.0000000 )


   Cartesian axes

     site n.     atom                  positions (alat units)
         1        Fe     tau(   1) = (   0.0000000   0.0000000   0.0000000  )
         2        Fe     tau(   2) = (   0.2500000   0.2500000   0.2500000  )
         3        Fe     tau(   3) = (   0.0000000   0.0000000   0.5000000  )
         4        Fe     tau(   4) = (   0.2500000   0.2500000   0.7500000  )
         5        Fe     tau(   5) = (   0.0000000   0.5000000   0.0000000  )
         6        Fe     tau(   6) = (   0.2500000   0.7500000   0.2500000  )
         7        Fe     tau(   7) = (   0.0000000   0.5000000   0.5000000  )
         8        Fe     tau(   8) = (   0.2500000   0.7500000   0.7500000  )
         9        Fe     tau(   9) = (   0.5000000   0.0000000   0.0000000  )
        10        Fe     tau(  10) = (   0.7500000   0.2500000   0.2500000  )
        11        Fe     tau(  11) = (   0.5000000   0.0000000   0.5000000  )
        12        Fe     tau(  12) = (   0.7500000   0.2500000   0.7500000  )
        13        Fe     tau(  13) = (   0.5000000   0.5000000   0.0000000  )
        14        Fe     tau(  14) = (   0.7500000   0.7500000   0.2500000  )
        15        Fe     tau(  15) = (   0.5000000   0.5000000   0.5000000  )
        16        Fe     tau(  16) = (   0.7500000   0.7500000   0.7500000  )

   Crystallographic axes

     site n.     atom                  positions (cryst. coord.)
         1        Fe     tau(   1) = (  0.0000000  0.0000000  0.0000000  )
         2        Fe     tau(   2) = (  0.2500000  0.2500000  0.2500000  )
         3        Fe     tau(   3) = (  0.0000000  0.0000000  0.5000000  )
         4        Fe     tau(   4) = (  0.2500000  0.2500000  0.7500000  )
         5        Fe     tau(   5) = (  0.0000000  0.5000000  0.0000000  )
         6        Fe     tau(   6) = (  0.2500000  0.7500000  0.2500000  )
         7        Fe     tau(   7) = (  0.0000000  0.5000000  0.5000000  )
         8        Fe     tau(   8) = (  0.2500000  0.7500000  0.7500000  )
         9        Fe     tau(   9) = (  0.5000000  0.0000000  0.0000000  )
        10        Fe     tau(  10) = (  0.7500000  0.2500000  0.2500000  )
        11        Fe     tau(  11) = (  0.5000000  0.0000000  0.5000000  )
        12        Fe     tau(  12) = (  0.7500000  0.2500000  0.7500000  )
        13        Fe     tau(  13) = (  0.5000000  0.5000000  0.0000000  )
        14        Fe     tau(  14) = (  0.7500000  0.7500000  0.2500000  )
        15        Fe     tau(  15) = (  0.5000000  0.5000000  0.5000000  )
        16        Fe     tau(  16) = (  0.7500000  0.7500000  0.7500000  )

     number of k points=    35  Marzari-Vanderbilt smearing, width (Ry)=  0.0100
                       cart. coord. in units 2pi/alat
        k(    1) = (   0.0000000   0.0000000   0.0000000), wk =   0.0019531
        k(    2) = (   0.0000000   0.0000000   0.1250000), wk =   0.0117188
        k(    3) = (   0.0000000   0.0000000   0.2500000), wk =   0.0117188
        k(    4) = (   0.0000000   0.0000000   0.3750000), wk =   0.0117188
        k(    5) = (   0.0000000   0.0000000  -0.5000000), wk =   0.0058594
        k(    6) = (   0.0000000   0.1250000   0.1250000), wk =   0.0234375
        k(    7) = (   0.0000000   0.1250000   0.2500000), wk =   0.0468750
        k(    8) = (   0.0000000   0.1250000   0.3750000), wk =   0.0468750
        k(    9) = (   0.0000000   0.1250000  -0.5000000), wk =   0.0234375
        k(   10) = (   0.0000000   0.2500000   0.2500000), wk =   0.0234375
        k(   11) = (   0.0000000   0.2500000   0.3750000), wk =   0.0468750
        k(   12) = (   0.0000000   0.2500000  -0.5000000), wk =   0.0234375
        k(   13) = (   0.0000000   0.3750000   0.3750000), wk =   0.0234375
        k(   14) = (   0.0000000   0.3750000  -0.5000000), wk =   0.0234375
        k(   15) = (   0.0000000  -0.5000000  -0.5000000), wk =   0.0058594
        k(   16) = (   0.1250000   0.1250000   0.1250000), wk =   0.0156250
        k(   17) = (   0.1250000   0.1250000   0.2500000), wk =   0.0468750
        k(   18) = (   0.1250000   0.1250000   0.3750000), wk =   0.0468750
        k(   19) = (   0.1250000   0.1250000  -0.5000000), wk =   0.0234375
        k(   20) = (   0.1250000   0.2500000   0.2500000), wk =   0.0468750
        k(   21) = (   0.1250000   0.2500000   0.3750000), wk =   0.0937500
        k(   22) = (   0.1250000   0.2500000  -0.5000000), wk =   0.0468750
        k(   23) = (   0.1250000   0.3750000   0.3750000), wk =   0.0468750
        k(   24) = (   0.1250000   0.3750000  -0.5000000), wk =   0.0468750
        k(   25) = (   0.1250000  -0.5000000  -0.5000000), wk =   0.0117188
        k(   26) = (   0.2500000   0.2500000   0.2500000), wk =   0.0156250
        k(   27) = (   0.2500000   0.2500000   0.3750000), wk =   0.0468750
        k(   28) = (   0.2500000   0.2500000  -0.5000000), wk =   0.0234375
        k(   29) = (   0.2500000   0.3750000   0.3750000), wk =   0.0468750
        k(   30) = (   0.2500000   0.3750000  -0.5000000), wk =   0.0468750
        k(   31) = (   0.2500000  -0.5000000  -0.5000000), wk =   0.0117188
        k(   32) = (   0.3750000   0.3750000   0.3750000), wk =   0.0156250
        k(   33) = (   0.3750000   0.3750000  -0.5000000), wk =   0.0234375
        k(   34) = (   0.3750000  -0.5000000  -0.5000000), wk =   0.0117188
        k(   35) = (  -0.5000000  -0.5000000  -0.5000000), wk =   0.0019531

                       cryst. coord.
        k(    1) = (   0.0000000   0.0000000   0.0000000), wk =   0.0019531
        k(    2) = (   0.0000000   0.0000000   0.1250000), wk =   0.0117188
        k(    3) = (   0.0000000   0.0000000   0.2500000), wk =   0.0117188
        k(    4) = (   0.0000000   0.0000000   0.3750000), wk =   0.0117188
        k(    5) = (   0.0000000   0.0000000  -0.5000000), wk =   0.0058594
        k(    6) = (   0.0000000   0.1250000   0.1250000), wk =   0.0234375
        k(    7) = (   0.0000000   0.1250000   0.2500000), wk =   0.0468750
        k(    8) = (   0.0000000   0.1250000   0.3750000), wk =   0.0468750
        k(    9) = (   0.0000000   0.1250000  -0.5000000), wk =   0.0234375
        k(   10) = (   0.0000000   0.2500000   0.2500000), wk =   0.0234375
        k(   11) = (   0.0000000   0.2500000   0.3750000), wk =   0.0468750
        k(   12) = (   0.0000000   0.2500000  -0.5000000), wk =   0.0234375
        k(   13) = (   0.0000000   0.3750000   0.3750000), wk =   0.0234375
        k(   14) = (   0.0000000   0.3750000  -0.5000000), wk =   0.0234375
        k(   15) = (   0.0000000  -0.5000000  -0.5000000), wk =   0.0058594
        k(   16) = (   0.1250000   0.1250000   0.1250000), wk =   0.0156250
        k(   17) = (   0.1250000   0.1250000   0.2500000), wk =   0.0468750
        k(   18) = (   0.1250000   0.1250000   0.3750000), wk =   0.0468750
        k(   19) = (   0.1250000   0.1250000  -0.5000000), wk =   0.0234375
        k(   20) = (   0.1250000   0.2500000   0.2500000), wk =   0.0468750
        k(   21) = (   0.1250000   0.2500000   0.3750000), wk =   0.0937500
        k(   22) = (   0.1250000   0.2500000  -0.5000000), wk =   0.0468750
        k(   23) = (   0.1250000   0.3750000   0.3750000), wk =   0.0468750
        k(   24) = (   0.1250000   0.3750000  -0.5000000), wk =   0.0468750
        k(   25) = (   0.1250000  -0.5000000  -0.5000000), wk =   0.0117188
        k(   26) = (   0.2500000   0.2500000   0.2500000), wk =   0.0156250
        k(   27) = (   0.2500000   0.2500000   0.3750000), wk =   0.0468750
        k(   28) = (   0.2500000   0.2500000  -0.5000000), wk =   0.0234375
        k(   29) = (   0.2500000   0.3750000   0.3750000), wk =   0.0468750
        k(   30) = (   0.2500000   0.3750000  -0.5000000), wk =   0.0468750
        k(   31) = (   0.2500000  -0.5000000  -0.5000000), wk =   0.0117188
        k(   32) = (   0.3750000   0.3750000   0.3750000), wk =   0.0156250
        k(   33) = (   0.3750000   0.3750000  -0.5000000), wk =   0.0234375
        k(   34) = (   0.3750000  -0.5000000  -0.5000000), wk =   0.0117188
        k(   35) = (  -0.5000000  -0.5000000  -0.5000000), wk =   0.0019531

     Dense  grid:   763649 G-vectors     FFT dimensions: ( 120, 120, 120)

     Smooth grid:   146965 G-vectors     FFT dimensions: (  72,  72,  72)

     Dynamical RAM for                 wfc:       5.39 MB

     Dynamical RAM for     wfc (w. buffer):     102.47 MB

     Dynamical RAM for           str. fact:       1.46 MB

     Dynamical RAM for           local pot:       0.00 MB

     Dynamical RAM for          nlocal pot:      10.09 MB

     Dynamical RAM for                qrad:       2.64 MB

     Dynamical RAM for          rho,v,vnew:      18.63 MB

     Dynamical RAM for               rhoin:       6.21 MB

     Dynamical RAM for            rho*nmix:      46.61 MB

     Dynamical RAM for           G-vectors:       5.60 MB

     Dynamical RAM for          h,s,v(r/c):       1.09 MB

     Dynamical RAM for          <psi|beta>:       0.68 MB

     Dynamical RAM for                 psi:      10.79 MB

     Dynamical RAM for                hpsi:      10.79 MB

     Dynamical RAM for                spsi:      10.79 MB

     Dynamical RAM for      wfcinit/wfcrot:      11.79 MB

     Dynamical RAM for           addusdens:      76.10 MB

     Dynamical RAM for          addusforce:      86.06 MB

     Dynamical RAM for         addusstress:      74.83 MB

     Estimated static dynamical RAM per process >     159.88 MB

     Estimated max dynamical RAM per process >     292.55 MB

     Estimated total dynamical RAM >       8.05 GB
     Generating pointlists ...
     new r_m :   0.1786 (alat units)  1.9362 (a.u.) for type    1

     Initial potential from superposition of free atoms

     starting charge     255.9930, renormalised to     256.0000
     Starting wfcs are  160 randomized atomic wfcs
     Checking if some PAW data can be deallocated... 

     total cpu time spent up to now is        7.8 secs

     per-process dynamical memory:   359.5 Mb

     Self-consistent Calculation

     iteration #  1     ecut=    90.00 Ry     beta= 0.20
     Davidson diagonalization with overlap

---- Real-time Memory Report at c_bands before calling an iterative solver
           440 MiB given to the printing process from OS
           351 MiB allocation reported by mallinfo(arena+hblkhd)
        404151 MiB available memory on the node where the printing process lives
------------------
     ethr =  1.00E-02,  avg # of iterations =  3.5

     total cpu time spent up to now is       26.3 secs

     total energy              =   -5265.73347758 Ry
     estimated scf accuracy    <       4.40721043 Ry

     total magnetization       =    50.07 Bohr mag/cell
     absolute magnetization    =    50.79 Bohr mag/cell

     iteration #  2     ecut=    90.00 Ry     beta= 0.20
     Davidson diagonalization with overlap

---- Real-time Memory Report at c_bands before calling an iterative solver
           520 MiB given to the printing process from OS
           366 MiB allocation reported by mallinfo(arena+hblkhd)
        403646 MiB available memory on the node where the printing process lives
------------------
     ethr =  1.72E-03,  avg # of iterations =  2.3

     negative rho (up, down):  0.000E+00 4.264E-03

     total cpu time spent up to now is       41.5 secs

     total energy              =   -5267.82899487 Ry
     estimated scf accuracy    <       3.00152886 Ry

     total magnetization       =    48.88 Bohr mag/cell
     absolute magnetization    =    49.98 Bohr mag/cell

     iteration #  3     ecut=    90.00 Ry     beta= 0.20
     Davidson diagonalization with overlap

---- Real-time Memory Report at c_bands before calling an iterative solver
           521 MiB given to the printing process from OS
           367 MiB allocation reported by mallinfo(arena+hblkhd)
        403644 MiB available memory on the node where the printing process lives
------------------
     ethr =  1.17E-03,  avg # of iterations =  1.6

     negative rho (up, down):  0.000E+00 5.301E-03

     total cpu time spent up to now is       56.9 secs

     total energy              =   -5268.25759443 Ry
     estimated scf accuracy    <       0.65238806 Ry

     total magnetization       =    41.17 Bohr mag/cell
     absolute magnetization    =    43.76 Bohr mag/cell

     iteration #  4     ecut=    90.00 Ry     beta= 0.20
     Davidson diagonalization with overlap

---- Real-time Memory Report at c_bands before calling an iterative solver
           523 MiB given to the printing process from OS
           369 MiB allocation reported by mallinfo(arena+hblkhd)
        403626 MiB available memory on the node where the printing process lives
------------------
     ethr =  2.55E-04,  avg # of iterations =  2.1

     negative rho (up, down):  0.000E+00 5.169E-03

     total cpu time spent up to now is       72.0 secs

     total energy              =   -5268.28971317 Ry
     estimated scf accuracy    <       0.38804569 Ry

     total magnetization       =    40.47 Bohr mag/cell
     absolute magnetization    =    43.08 Bohr mag/cell

     iteration #  5     ecut=    90.00 Ry     beta= 0.20
     Davidson diagonalization with overlap

---- Real-time Memory Report at c_bands before calling an iterative solver
           524 MiB given to the printing process from OS
           370 MiB allocation reported by mallinfo(arena+hblkhd)
        403706 MiB available memory on the node where the printing process lives
------------------
     ethr =  1.52E-04,  avg # of iterations =  1.3

     negative rho (up, down):  0.000E+00 4.866E-03

     total cpu time spent up to now is       86.1 secs

     total energy              =   -5268.28512292 Ry
     estimated scf accuracy    <       0.20010036 Ry

     total magnetization       =    40.34 Bohr mag/cell
     absolute magnetization    =    42.86 Bohr mag/cell

     iteration #  6     ecut=    90.00 Ry     beta= 0.20
     Davidson diagonalization with overlap

---- Real-time Memory Report at c_bands before calling an iterative solver
           525 MiB given to the printing process from OS
           371 MiB allocation reported by mallinfo(arena+hblkhd)
        414695 MiB available memory on the node where the printing process lives
------------------
     ethr =  7.82E-05,  avg # of iterations =  1.3

     negative rho (up, down):  0.000E+00 4.389E-03

     total cpu time spent up to now is      100.1 secs

     total energy              =   -5268.27342717 Ry
     estimated scf accuracy    <       0.13563728 Ry

     total magnetization       =    40.03 Bohr mag/cell
     absolute magnetization    =    42.52 Bohr mag/cell

     iteration #  7     ecut=    90.00 Ry     beta= 0.20
     Davidson diagonalization with overlap

---- Real-time Memory Report at c_bands before calling an iterative solver
           526 MiB given to the printing process from OS
           373 MiB allocation reported by mallinfo(arena+hblkhd)
        414689 MiB available memory on the node where the printing process lives
------------------
     ethr =  5.30E-05,  avg # of iterations =  1.8

     negative rho (up, down):  0.000E+00 4.054E-03

     total cpu time spent up to now is      114.9 secs

     total energy              =   -5268.28162685 Ry
     estimated scf accuracy    <       0.05514055 Ry

     total magnetization       =    39.19 Bohr mag/cell
     absolute magnetization    =    41.70 Bohr mag/cell

     iteration #  8     ecut=    90.00 Ry     beta= 0.20
     Davidson diagonalization with overlap

---- Real-time Memory Report at c_bands before calling an iterative solver
           527 MiB given to the printing process from OS
           374 MiB allocation reported by mallinfo(arena+hblkhd)
        414658 MiB available memory on the node where the printing process lives
------------------
     ethr =  2.15E-05,  avg # of iterations =  1.6

     negative rho (up, down):  0.000E+00 2.941E-03

     total cpu time spent up to now is      129.4 secs

     total energy              =   -5268.28650125 Ry
     estimated scf accuracy    <       0.04143718 Ry

     total magnetization       =    38.51 Bohr mag/cell
     absolute magnetization    =    41.04 Bohr mag/cell

     iteration #  9     ecut=    90.00 Ry     beta= 0.20
     Davidson diagonalization with overlap

---- Real-time Memory Report at c_bands before calling an iterative solver
           529 MiB given to the printing process from OS
           375 MiB allocation reported by mallinfo(arena+hblkhd)
        415498 MiB available memory on the node where the printing process lives
------------------
     ethr =  1.62E-05,  avg # of iterations =  2.5

     negative rho (up, down):  0.000E+00 1.227E-03

     total cpu time spent up to now is      144.8 secs

     total energy              =   -5268.29677780 Ry
     estimated scf accuracy    <       0.02675977 Ry

     total magnetization       =    37.14 Bohr mag/cell
     absolute magnetization    =    39.70 Bohr mag/cell

     iteration # 10     ecut=    90.00 Ry     beta= 0.20
     Davidson diagonalization with overlap

---- Real-time Memory Report at c_bands before calling an iterative solver
           530 MiB given to the printing process from OS
           376 MiB allocation reported by mallinfo(arena+hblkhd)
        415487 MiB available memory on the node where the printing process lives
------------------
     ethr =  1.05E-05,  avg # of iterations =  2.8

     negative rho (up, down):  0.000E+00 8.961E-04

     total cpu time spent up to now is      162.0 secs

     total energy              =   -5268.30734470 Ry
     estimated scf accuracy    <       0.00584027 Ry

     total magnetization       =    35.97 Bohr mag/cell
     absolute magnetization    =    38.38 Bohr mag/cell

     iteration # 11     ecut=    90.00 Ry     beta= 0.20
     Davidson diagonalization with overlap

---- Real-time Memory Report at c_bands before calling an iterative solver
           531 MiB given to the printing process from OS
           377 MiB allocation reported by mallinfo(arena+hblkhd)
        415458 MiB available memory on the node where the printing process lives
------------------
     ethr =  2.28E-06,  avg # of iterations =  4.8

     negative rho (up, down):  0.000E+00 8.139E-04

     total cpu time spent up to now is      181.8 secs

     total energy              =   -5268.31045333 Ry
     estimated scf accuracy    <       0.00877256 Ry

     total magnetization       =    35.50 Bohr mag/cell
     absolute magnetization    =    37.73 Bohr mag/cell

     iteration # 12     ecut=    90.00 Ry     beta= 0.20
     Davidson diagonalization with overlap

---- Real-time Memory Report at c_bands before calling an iterative solver
           531 MiB given to the printing process from OS
           377 MiB allocation reported by mallinfo(arena+hblkhd)
        415493 MiB available memory on the node where the printing process lives
------------------
     ethr =  2.28E-06,  avg # of iterations =  1.4

     negative rho (up, down):  0.000E+00 8.046E-04

     total cpu time spent up to now is      196.3 secs

     total energy              =   -5268.31094610 Ry
     estimated scf accuracy    <       0.00058447 Ry

     total magnetization       =    35.59 Bohr mag/cell
     absolute magnetization    =    37.76 Bohr mag/cell

     iteration # 13     ecut=    90.00 Ry     beta= 0.20
     Davidson diagonalization with overlap

---- Real-time Memory Report at c_bands before calling an iterative solver
           531 MiB given to the printing process from OS
           377 MiB allocation reported by mallinfo(arena+hblkhd)
        415493 MiB available memory on the node where the printing process lives
------------------
     ethr =  2.28E-07,  avg # of iterations =  4.1

     negative rho (up, down):  0.000E+00 7.879E-04

     total cpu time spent up to now is      215.8 secs

     total energy              =   -5268.31125401 Ry
     estimated scf accuracy    <       0.00046013 Ry

     total magnetization       =    35.63 Bohr mag/cell
     absolute magnetization    =    37.76 Bohr mag/cell

     iteration # 14     ecut=    90.00 Ry     beta= 0.20
     Davidson diagonalization with overlap

---- Real-time Memory Report at c_bands before calling an iterative solver
           531 MiB given to the printing process from OS
           377 MiB allocation reported by mallinfo(arena+hblkhd)
        415471 MiB available memory on the node where the printing process lives
------------------
     ethr =  1.80E-07,  avg # of iterations =  1.6

     negative rho (up, down):  0.000E+00 7.921E-04

     total cpu time spent up to now is      230.7 secs

     total energy              =   -5268.31139499 Ry
     estimated scf accuracy    <       0.00016940 Ry

     total magnetization       =    35.57 Bohr mag/cell
     absolute magnetization    =    37.69 Bohr mag/cell

     iteration # 15     ecut=    90.00 Ry     beta= 0.20
     Davidson diagonalization with overlap

---- Real-time Memory Report at c_bands before calling an iterative solver
           531 MiB given to the printing process from OS
           378 MiB allocation reported by mallinfo(arena+hblkhd)
        415559 MiB available memory on the node where the printing process lives
------------------
     ethr =  6.62E-08,  avg # of iterations =  4.0

     negative rho (up, down):  0.000E+00 7.813E-04

     total cpu time spent up to now is      248.8 secs

     total energy              =   -5268.31145842 Ry
     estimated scf accuracy    <       0.00005466 Ry

     total magnetization       =    35.54 Bohr mag/cell
     absolute magnetization    =    37.61 Bohr mag/cell

     iteration # 16     ecut=    90.00 Ry     beta= 0.20
     Davidson diagonalization with overlap

---- Real-time Memory Report at c_bands before calling an iterative solver
           531 MiB given to the printing process from OS
           377 MiB allocation reported by mallinfo(arena+hblkhd)
        415548 MiB available memory on the node where the printing process lives
------------------
     ethr =  2.14E-08,  avg # of iterations =  4.8

     negative rho (up, down):  0.000E+00 7.840E-04

     total cpu time spent up to now is      267.9 secs

     total energy              =   -5268.31149462 Ry
     estimated scf accuracy    <       0.00001367 Ry

     total magnetization       =    35.47 Bohr mag/cell
     absolute magnetization    =    37.52 Bohr mag/cell

     iteration # 17     ecut=    90.00 Ry     beta= 0.20
     Davidson diagonalization with overlap

---- Real-time Memory Report at c_bands before calling an iterative solver
           531 MiB given to the printing process from OS
           378 MiB allocation reported by mallinfo(arena+hblkhd)
        415548 MiB available memory on the node where the printing process lives
------------------
     ethr =  5.34E-09,  avg # of iterations =  4.3

     negative rho (up, down):  0.000E+00 7.838E-04

     total cpu time spent up to now is      287.9 secs

     total energy              =   -5268.31149930 Ry
     estimated scf accuracy    <       0.00000563 Ry

     total magnetization       =    35.48 Bohr mag/cell
     absolute magnetization    =    37.52 Bohr mag/cell

     iteration # 18     ecut=    90.00 Ry     beta= 0.20
     Davidson diagonalization with overlap

---- Real-time Memory Report at c_bands before calling an iterative solver
           531 MiB given to the printing process from OS
           378 MiB allocation reported by mallinfo(arena+hblkhd)
        415530 MiB available memory on the node where the printing process lives
------------------
     ethr =  2.20E-09,  avg # of iterations =  2.5

     negative rho (up, down):  0.000E+00 7.853E-04

     total cpu time spent up to now is      304.3 secs

     total energy              =   -5268.31150083 Ry
     estimated scf accuracy    <       0.00000248 Ry

     total magnetization       =    35.47 Bohr mag/cell
     absolute magnetization    =    37.51 Bohr mag/cell

     iteration # 19     ecut=    90.00 Ry     beta= 0.20
     Davidson diagonalization with overlap

---- Real-time Memory Report at c_bands before calling an iterative solver
           532 MiB given to the printing process from OS
           378 MiB allocation reported by mallinfo(arena+hblkhd)
        415534 MiB available memory on the node where the printing process lives
------------------
     ethr =  9.68E-10,  avg # of iterations =  3.2

     negative rho (up, down):  0.000E+00 7.849E-04

     total cpu time spent up to now is      322.0 secs

     total energy              =   -5268.31150159 Ry
     estimated scf accuracy    <       0.00000101 Ry

     total magnetization       =    35.48 Bohr mag/cell
     absolute magnetization    =    37.52 Bohr mag/cell

     iteration # 20     ecut=    90.00 Ry     beta= 0.20
     Davidson diagonalization with overlap

---- Real-time Memory Report at c_bands before calling an iterative solver
           532 MiB given to the printing process from OS
           378 MiB allocation reported by mallinfo(arena+hblkhd)
        415533 MiB available memory on the node where the printing process lives
------------------
     ethr =  3.96E-10,  avg # of iterations =  1.5

     negative rho (up, down):  0.000E+00 7.843E-04

     total cpu time spent up to now is      336.7 secs

     total energy              =   -5268.31150175 Ry
     estimated scf accuracy    <       0.00000061 Ry

     total magnetization       =    35.48 Bohr mag/cell
     absolute magnetization    =    37.51 Bohr mag/cell

     iteration # 21     ecut=    90.00 Ry     beta= 0.20
     Davidson diagonalization with overlap

---- Real-time Memory Report at c_bands before calling an iterative solver
           532 MiB given to the printing process from OS
           378 MiB allocation reported by mallinfo(arena+hblkhd)
        415533 MiB available memory on the node where the printing process lives
------------------
     ethr =  2.39E-10,  avg # of iterations =  2.0

     negative rho (up, down):  0.000E+00 7.844E-04

     total cpu time spent up to now is      352.1 secs

     total energy              =   -5268.31150182 Ry
     estimated scf accuracy    <       0.00000020 Ry

     total magnetization       =    35.48 Bohr mag/cell
     absolute magnetization    =    37.51 Bohr mag/cell

     iteration # 22     ecut=    90.00 Ry     beta= 0.20
     Davidson diagonalization with overlap

---- Real-time Memory Report at c_bands before calling an iterative solver
           532 MiB given to the printing process from OS
           378 MiB allocation reported by mallinfo(arena+hblkhd)
        415529 MiB available memory on the node where the printing process lives
------------------
     ethr =  7.84E-11,  avg # of iterations =  2.7

     negative rho (up, down):  0.000E+00 7.843E-04

     total cpu time spent up to now is      368.9 secs

     total energy              =   -5268.31150186 Ry
     estimated scf accuracy    <       0.00000006 Ry

     total magnetization       =    35.48 Bohr mag/cell
     absolute magnetization    =    37.51 Bohr mag/cell

     iteration # 23     ecut=    90.00 Ry     beta= 0.20
     Davidson diagonalization with overlap

---- Real-time Memory Report at c_bands before calling an iterative solver
           532 MiB given to the printing process from OS
           378 MiB allocation reported by mallinfo(arena+hblkhd)
        415529 MiB available memory on the node where the printing process lives
------------------
     ethr =  2.48E-11,  avg # of iterations =  3.2

     negative rho (up, down):  0.000E+00 7.843E-04

     total cpu time spent up to now is      387.2 secs

     total energy              =   -5268.31150192 Ry
     estimated scf accuracy    <       0.00000002 Ry

     total magnetization       =    35.48 Bohr mag/cell
     absolute magnetization    =    37.51 Bohr mag/cell

     iteration # 24     ecut=    90.00 Ry     beta= 0.20
     Davidson diagonalization with overlap

---- Real-time Memory Report at c_bands before calling an iterative solver
           533 MiB given to the printing process from OS
           379 MiB allocation reported by mallinfo(arena+hblkhd)
        415529 MiB available memory on the node where the printing process lives
------------------
     ethr =  8.07E-12,  avg # of iterations =  4.7

     negative rho (up, down):  0.000E+00 7.843E-04

     Magnetic moment per site  (integrated on atomic sphere of radius R)
     atom   1 (R=0.179)  charge= 14.4209  magn=  2.2715
     atom   2 (R=0.179)  charge= 14.4210  magn=  2.2714
     atom   3 (R=0.179)  charge= 14.4210  magn=  2.2714
     atom   4 (R=0.179)  charge= 14.4210  magn=  2.2714
     atom   5 (R=0.179)  charge= 14.4210  magn=  2.2714
     atom   6 (R=0.179)  charge= 14.4210  magn=  2.2714
     atom   7 (R=0.179)  charge= 14.4209  magn=  2.2714
     atom   8 (R=0.179)  charge= 14.4210  magn=  2.2714
     atom   9 (R=0.179)  charge= 14.4210  magn=  2.2714
     atom  10 (R=0.179)  charge= 14.4210  magn=  2.2714
     atom  11 (R=0.179)  charge= 14.4209  magn=  2.2714
     atom  12 (R=0.179)  charge= 14.4210  magn=  2.2714
     atom  13 (R=0.179)  charge= 14.4209  magn=  2.2714
     atom  14 (R=0.179)  charge= 14.4210  magn=  2.2714
     atom  15 (R=0.179)  charge= 14.4209  magn=  2.2715
     atom  16 (R=0.179)  charge= 14.4210  magn=  2.2714

     total cpu time spent up to now is      405.8 secs

     End of self-consistent calculation

 ------ SPIN UP ------------


          k = 0.0000 0.0000 0.0000 ( 18325 PWs)   bands (ev):

   -70.5996 -70.5369 -70.5369 -70.5369 -70.5369 -70.5368 -70.5368 -70.5325
   -70.5324 -70.5324 -70.5324 -70.5324 -70.5324 -70.5281 -70.5281 -70.4826
   -36.7860 -36.7860 -36.7860 -36.7860 -36.7860 -36.7860 -36.6860 -36.6860
   -36.6860 -36.6110 -36.6110 -36.6110 -36.6110 -36.6110 -36.6110 -36.6010
   -36.6010 -36.6010 -36.6009 -36.6009 -36.6009 -36.5512 -36.5512 -36.5512
   -36.5512 -36.5512 -36.5512 -36.5512 -36.5512 -36.5512 -36.5512 -36.5512
   -36.5512 -36.5465 -36.5465 -36.5465 -36.5464 -36.5464 -36.5464 -36.4239
   -36.4239 -36.4239 -36.4234 -36.4234 -36.4234 -36.4234 -36.4234 -36.4234
     9.1531  12.6979  12.6979  12.6979  12.6979  12.6979  12.6979  12.7936
    12.7936  12.8950  12.8950  12.8950  12.8950  12.8950  12.8950  14.2038
    14.2038  14.2038  14.2039  14.2039  14.2039  14.3405  14.3405  14.3405
    14.3405  14.3405  14.3405  14.5578  14.5578  14.5578  14.5579  14.5579
    14.5579  15.2346  15.2346  15.2346  15.6569  15.6569  15.6569  15.6569
    15.6569  15.6569  15.6569  15.6569  15.6569  15.6570  15.6570  15.6570
    16.3630  16.3630  16.3630  16.3631  16.3631  16.3631  16.3651  16.3651
    16.4342  16.4342  16.4342  16.4342  16.4342  16.4342  16.5429  16.5429
    16.5429  16.5429  16.5429  16.5429  16.5765  16.5765  16.5766  16.5766
    17.5445  17.5445  17.5445  17.5868  17.5868  17.5868  17.5869  17.5869
    17.5869  17.8023  17.8023  17.8023  17.8023  17.8023  17.8023  17.9305
    17.9305  17.9305

     occupation numbers 
     1.0000   1.0000   1.0000   1.0000   1.0000   1.0000   1.0000   1.0000
     1.0000   1.0000   1.0000   1.0000   1.0000   1.0000   1.0000   1.0000
     1.0000   1.0000   1.0000   1.0000   1.0000   1.0000   1.0000   1.0000
     1.0000   1.0000   1.0000   1.0000   1.0000   1.0000   1.0000   1.0000
     1.0000   1.0000   1.0000   1.0000   1.0000   1.0000   1.0000   1.0000
     1.0000   1.0000   1.0000   1.0000   1.0000   1.0000   1.0000   1.0000
     1.0000   1.0000   1.0000   1.0000   1.0000   1.0000   1.0000   1.0000
     1.0000   1.0000   1.0000   1.0000   1.0000   1.0000   1.0000   1.0000
     1.0000   1.0000   1.0000   1.0000   1.0000   1.0000   1.0000   1.0000
     1.0000   1.0000   1.0000   1.0000   1.0000   1.0000   1.0000   1.0000
     1.0000   1.0000   1.0000   1.0000   1.0000   1.0000   1.0000   1.0000
     1.0000   1.0000   1.0000   1.0000   1.0000   1.0000   1.0000   1.0000
     1.0000   1.0000   1.0000   1.0000   1.0000   1.0000   1.0000   1.0000
     1.0000   1.0000   1.0000   1.0000   1.0000   1.0000   1.0000   1.0000
     1.0000   1.0000   1.0000   1.0000   1.0000   1.0000   1.0000   1.0000
     1.0000   1.0000   1.0000   1.0000   1.0000   1.0000   1.0000   1.0000
     1.0000   1.0000   1.0000   1.0000   1.0000   1.0000   1.0000   1.0000
     0.0712   0.0712   0.0712   0.0253   0.0253   0.0253   0.0253   0.0253
     0.0252   0.0000   0.0000   0.0000   0.0000   0.0000   0.0000   0.0000
     0.0000   0.0000

          k = 0.0000 0.0000 0.1250 ( 18365 PWs)   bands (ev):

   -70.5983 -70.5484 -70.5367 -70.5367 -70.5367 -70.5366 -70.5326 -70.5326
   -70.5326 -70.5325 -70.5323 -70.5322 -70.5283 -70.5282 -70.5256 -70.4836
   -36.7824 -36.7824 -36.7817 -36.7816 -36.7816 -36.7816 -36.6856 -36.6833
   -36.6833 -36.6365 -36.6365 -36.6344 -36.6277 -36.6277 -36.6277 -36.6277
   -36.5989 -36.5988 -36.5834 -36.5770 -36.5770 -36.5657 -36.5657 -36.5511
   -36.5511 -36.5510 -36.5510 -36.5485 -36.5485 -36.5466 -36.5466 -36.5466
   -36.5466 -36.5364 -36.5364 -36.5364 -36.5364 -36.5258 -36.5258 -36.4286
   -36.4267 -36.4267 -36.4263 -36.4263 -36.4260 -36.4259 -36.4259 -36.4259
     9.2323  12.3355  12.7200  12.7200  12.7200  12.7200  12.7518  12.7518
    12.8266  12.8275  12.9221  12.9221  12.9221  12.9221  13.2502  14.1964
    14.1964  14.2073  14.2199  14.2199  14.2370  14.2370  14.2370  14.2371
    14.2664  14.2664  14.5231  14.5231  14.5332  14.5332  14.5332  14.5332
    14.9102  15.2339  15.2339  15.2558  15.4946  15.4946  15.5153  15.5153
    15.5153  15.5154  15.7191  15.7191  15.7191  15.7191  15.8669  15.8669
    16.1387  16.3307  16.3325  16.3325  16.3325  16.3326  16.3788  16.4349
    16.4349  16.4349  16.4349  16.4410  16.4410  16.5039  16.5040  16.5040
    16.5040  16.5441  16.5442  16.5740  16.5740  16.5753  16.5753  16.5893
    17.1268  17.1594  17.1594  17.4784  17.4784  17.5212  17.6100  17.6100
    17.6100  17.6100  17.7697  17.7698  17.7698  17.7698  17.9715  17.9715
    17.9715  17.9715

     occupation numbers 
     1.0000   1.0000   1.0000   1.0000   1.0000   1.0000   1.0000   1.0000
     1.0000   1.0000   1.0000   1.0000   1.0000   1.0000   1.0000   1.0000
     1.0000   1.0000   1.0000   1.0000   1.0000   1.0000   1.0000   1.0000
     1.0000   1.0000   1.0000   1.0000   1.0000   1.0000   1.0000   1.0000
     1.0000   1.0000   1.0000   1.0000   1.0000   1.0000   1.0000   1.0000
     1.0000   1.0000   1.0000   1.0000   1.0000   1.0000   1.0000   1.0000
     1.0000   1.0000   1.0000   1.0000   1.0000   1.0000   1.0000   1.0000
     1.0000   1.0000   1.0000   1.0000   1.0000   1.0000   1.0000   1.0000
     1.0000   1.0000   1.0000   1.0000   1.0000   1.0000   1.0000   1.0000
     1.0000   1.0000   1.0000   1.0000   1.0000   1.0000   1.0000   1.0000
     1.0000   1.0000   1.0000   1.0000   1.0000   1.0000   1.0000   1.0000
     1.0000   1.0000   1.0000   1.0000   1.0000   1.0000   1.0000   1.0000
     1.0000   1.0000   1.0000   1.0000   1.0000   1.0000   1.0000   1.0000
     1.0000   1.0000   1.0000   1.0000   1.0000   1.0000   1.0000   1.0000
     1.0000   1.0000   1.0000   1.0000   1.0000   1.0000   1.0000   1.0000
     1.0000   1.0000   1.0000   1.0000   1.0000   1.0000   1.0000   1.0000
     1.0000   1.0000   1.0000   1.0000   1.0000   1.0000   1.0000   1.0000
     1.0174   1.0330   1.0330   0.2494   0.2494   0.1163   0.0133   0.0133
     0.0133   0.0132   0.0000   0.0000   0.0000   0.0000   0.0000   0.0000
     0.0000   0.0000

          k = 0.0000 0.0000 0.2500 ( 18353 PWs)   bands (ev):

   -70.5945 -70.5599 -70.5362 -70.5362 -70.5362 -70.5362 -70.5331 -70.5331
   -70.5331 -70.5330 -70.5318 -70.5318 -70.5287 -70.5287 -70.5151 -70.4864
   -36.7717 -36.7717 -36.7689 -36.7689 -36.7689 -36.7689 -36.6841 -36.6755
   -36.6755 -36.6709 -36.6709 -36.6586 -36.6586 -36.6586 -36.6586 -36.6528
   -36.6020 -36.6020 -36.5930 -36.5930 -36.5545 -36.5544 -36.5529 -36.5506
   -36.5506 -36.5505 -36.5505 -36.5472 -36.5472 -36.5471 -36.5471 -36.5320
   -36.5320 -36.5106 -36.5106 -36.5106 -36.5105 -36.5016 -36.5016 -36.4422
   -36.4366 -36.4366 -36.4336 -36.4336 -36.4336 -36.4336 -36.4333 -36.4333
     9.4671  11.6644  12.7821  12.7821  12.7821  12.7821  12.9083  12.9083
    12.9239  12.9246  12.9783  12.9783  12.9783  12.9783  13.3825  13.8727
    14.0620  14.0620  14.1519  14.1519  14.1765  14.1765  14.3351  14.3352
    14.3352  14.3352  14.5208  14.5208  14.5208  14.5208  14.7741  14.7741
    15.2339  15.2339  15.2443  15.2443  15.2443  15.2443  15.2500  15.3187
    15.3781  15.3781  15.8657  15.8657  15.8657  15.8657  15.8918  15.8918
    15.8918  15.8919  15.9247  16.1219  16.1219  16.2288  16.3805  16.3806
    16.3806  16.3806  16.4185  16.4600  16.4600  16.5303  16.5303  16.5478
    16.5478  16.5643  16.5643  16.5716  16.5716  16.7737  16.7737  16.7737
    16.7737  16.8089  16.8555  17.2950  17.2950  17.4527  17.6732  17.6732
    17.6732  17.6732  17.6770  17.6770  17.6770  17.6770  18.0110  18.0110
    18.0110  18.0110

     occupation numbers 
     1.0000   1.0000   1.0000   1.0000   1.0000   1.0000   1.0000   1.0000
     1.0000   1.0000   1.0000   1.0000   1.0000   1.0000   1.0000   1.0000
     1.0000   1.0000   1.0000   1.0000   1.0000   1.0000   1.0000   1.0000
     1.0000   1.0000   1.0000   1.0000   1.0000   1.0000   1.0000   1.0000
     1.0000   1.0000   1.0000   1.0000   1.0000   1.0000   1.0000   1.0000
     1.0000   1.0000   1.0000   1.0000   1.0000   1.0000   1.0000   1.0000
     1.0000   1.0000   1.0000   1.0000   1.0000   1.0000   1.0000   1.0000
     1.0000   1.0000   1.0000   1.0000   1.0000   1.0000   1.0000   1.0000
     1.0000   1.0000   1.0000   1.0000   1.0000   1.0000   1.0000   1.0000
     1.0000   1.0000   1.0000   1.0000   1.0000   1.0000   1.0000   1.0000
     1.0000   1.0000   1.0000   1.0000   1.0000   1.0000   1.0000   1.0000
     1.0000   1.0000   1.0000   1.0000   1.0000   1.0000   1.0000   1.0000
     1.0000   1.0000   1.0000   1.0000   1.0000   1.0000   1.0000   1.0000
     1.0000   1.0000   1.0000   1.0000   1.0000   1.0000   1.0000   1.0000
     1.0000   1.0000   1.0000   1.0000   1.0000   1.0000   1.0000   1.0000
     1.0000   1.0000   1.0000   1.0000   1.0000   1.0000   1.0000   1.0000
     1.0000   1.0000   1.0000   1.0000   1.0000   1.0000   1.0000   1.0000
     1.0000   1.0000   1.0000   1.0529   1.0529   0.3622   0.0017   0.0017
     0.0017   0.0017   0.0015   0.0015   0.0015   0.0015   0.0000   0.0000
     0.0000   0.0000

          k = 0.0000 0.0000 0.3750 ( 18384 PWs)   bands (ev):

   -70.5884 -70.5707 -70.5355 -70.5355 -70.5355 -70.5354 -70.5338 -70.5338
   -70.5338 -70.5337 -70.5311 -70.5311 -70.5294 -70.5294 -70.5057 -70.4912
   -36.7543 -36.7543 -36.7486 -36.7486 -36.7486 -36.7486 -36.7028 -36.7028
   -36.6914 -36.6914 -36.6914 -36.6914 -36.6811 -36.6664 -36.6628 -36.6628
   -36.6252 -36.6252 -36.5842 -36.5841 -36.5633 -36.5633 -36.5498 -36.5498
   -36.5498 -36.5498 -36.5480 -36.5479 -36.5479 -36.5479 -36.5212 -36.5013
   -36.5013 -36.4855 -36.4855 -36.4855 -36.4854 -36.4796 -36.4796 -36.4635
   -36.4528 -36.4528 -36.4463 -36.4463 -36.4463 -36.4463 -36.4448 -36.4448
     9.8494  10.9831  12.8706  12.8706  12.8706  12.8706  13.0023  13.0023
    13.0023  13.0023  13.0651  13.0845  13.1509  13.1509  13.3480  13.5669
    13.7726  13.7726  14.1260  14.1260  14.1508  14.1508  14.4942  14.4942
    14.4942  14.4942  14.6350  14.6350  14.6350  14.6350  14.9626  14.9626
    14.9626  14.9626  15.0984  15.0984  15.2395  15.2395  15.3024  15.3024
    15.3821  15.3821  15.3821  15.3821  15.4210  15.5635  15.7294  15.9760
    15.9760  16.0326  16.0326  16.0326  16.0326  16.0625  16.2985  16.2985
    16.2985  16.2985  16.4132  16.4132  16.4825  16.4876  16.4876  16.5453
    16.5453  16.5532  16.5532  16.5661  16.5662  16.6871  17.0129  17.0300
    17.0300  17.0533  17.0533  17.0533  17.0533  17.3417  17.5166  17.5166
    17.5166  17.5166  17.7772  17.7772  17.7773  17.7773  17.9794  17.9794
    17.9794  17.9794

     occupation numbers 
     1.0000   1.0000   1.0000   1.0000   1.0000   1.0000   1.0000   1.0000
     1.0000   1.0000   1.0000   1.0000   1.0000   1.0000   1.0000   1.0000
     1.0000   1.0000   1.0000   1.0000   1.0000   1.0000   1.0000   1.0000
     1.0000   1.0000   1.0000   1.0000   1.0000   1.0000   1.0000   1.0000
     1.0000   1.0000   1.0000   1.0000   1.0000   1.0000   1.0000   1.0000
     1.0000   1.0000   1.0000   1.0000   1.0000   1.0000   1.0000   1.0000
     1.0000   1.0000   1.0000   1.0000   1.0000   1.0000   1.0000   1.0000
     1.0000   1.0000   1.0000   1.0000   1.0000   1.0000   1.0000   1.0000
     1.0000   1.0000   1.0000   1.0000   1.0000   1.0000   1.0000   1.0000
     1.0000   1.0000   1.0000   1.0000   1.0000   1.0000   1.0000   1.0000
     1.0000   1.0000   1.0000   1.0000   1.0000   1.0000   1.0000   1.0000
     1.0000   1.0000   1.0000   1.0000   1.0000   1.0000   1.0000   1.0000
     1.0000   1.0000   1.0000   1.0000   1.0000   1.0000   1.0000   1.0000
     1.0000   1.0000   1.0000   1.0000   1.0000   1.0000   1.0000   1.0000
     1.0000   1.0000   1.0000   1.0000   1.0000   1.0000   1.0000   1.0000
     1.0000   1.0000   1.0000   1.0000   1.0000   1.0000   1.0000   1.0000
     1.0000   1.0000   1.0000   1.0000   1.0000   1.0000   1.0007   1.0012
     1.0012   1.0025   1.0025   1.0025   1.0025   0.9267   0.1273   0.1273
     0.1273   0.1273   0.0000   0.0000   0.0000   0.0000   0.0000   0.0000
     0.0000   0.0000

          k = 0.0000 0.0000-0.5000 ( 18368 PWs)   bands (ev):

   -70.5804 -70.5803 -70.5347 -70.5347 -70.5347 -70.5347 -70.5347 -70.5346
   -70.5346 -70.5346 -70.5303 -70.5303 -70.5302 -70.5302 -70.4976 -70.4976
   -36.7311 -36.7311 -36.7310 -36.7310 -36.7222 -36.7221 -36.7221 -36.7221
   -36.7221 -36.7221 -36.7221 -36.7221 -36.6755 -36.6755 -36.6458 -36.6458
   -36.6457 -36.6457 -36.5738 -36.5738 -36.5737 -36.5737 -36.5489 -36.5489
   -36.5489 -36.5489 -36.5489 -36.5489 -36.5488 -36.5488 -36.4906 -36.4906
   -36.4746 -36.4746 -36.4746 -36.4746 -36.4638 -36.4638 -36.4638 -36.4638
   -36.4637 -36.4637 -36.4637 -36.4637 -36.4604 -36.4604 -36.4604 -36.4604
    10.3635  10.3635  12.9579  12.9579  12.9579  12.9579  12.9579  12.9579
    12.9579  12.9579  13.2214  13.2214  13.3010  13.3011  13.4522  13.4522
    13.4522  13.4522  14.1300  14.1300  14.1300  14.1300  14.7068  14.7068
    14.7068  14.7068  14.7068  14.7068  14.7068  14.7069  14.9341  14.9341
    14.9341  14.9341  14.9341  14.9341  14.9341  14.9341  15.2593  15.2593
    15.2593  15.2593  15.4987  15.4987  15.4987  15.4987  15.5595  15.5595
    15.8380  15.8380  16.1817  16.1817  16.1817  16.1818  16.1818  16.1818
    16.1818  16.1818  16.5181  16.5181  16.5181  16.5181  16.5597  16.5597
    16.5597  16.5597  16.5701  16.5701  16.7244  16.7244  16.7245  16.7245
    17.1930  17.1931  17.3065  17.3065  17.3065  17.3065  17.3065  17.3066
    17.3066  17.3066  17.8892  17.8892  17.8892  17.8892  17.8892  17.8892
    17.8892  17.8892

     occupation numbers 
     1.0000   1.0000   1.0000   1.0000   1.0000   1.0000   1.0000   1.0000
     1.0000   1.0000   1.0000   1.0000   1.0000   1.0000   1.0000   1.0000
     1.0000   1.0000   1.0000   1.0000   1.0000   1.0000   1.0000   1.0000
     1.0000   1.0000   1.0000   1.0000   1.0000   1.0000   1.0000   1.0000
     1.0000   1.0000   1.0000   1.0000   1.0000   1.0000   1.0000   1.0000
     1.0000   1.0000   1.0000   1.0000   1.0000   1.0000   1.0000   1.0000
     1.0000   1.0000   1.0000   1.0000   1.0000   1.0000   1.0000   1.0000
     1.0000   1.0000   1.0000   1.0000   1.0000   1.0000   1.0000   1.0000
     1.0000   1.0000   1.0000   1.0000   1.0000   1.0000   1.0000   1.0000
     1.0000   1.0000   1.0000   1.0000   1.0000   1.0000   1.0000   1.0000
     1.0000   1.0000   1.0000   1.0000   1.0000   1.0000   1.0000   1.0000
     1.0000   1.0000   1.0000   1.0000   1.0000   1.0000   1.0000   1.0000
     1.0000   1.0000   1.0000   1.0000   1.0000   1.0000   1.0000   1.0000
     1.0000   1.0000   1.0000   1.0000   1.0000   1.0000   1.0000   1.0000
     1.0000   1.0000   1.0000   1.0000   1.0000   1.0000   1.0000   1.0000
     1.0000   1.0000   1.0000   1.0000   1.0000   1.0000   1.0000   1.0000
     1.0000   1.0000   1.0000   1.0000   1.0000   1.0000   1.0000   1.0000
     1.0550   1.0550   1.0317   1.0317   1.0317   1.0317   1.0317   1.0317
     1.0317   1.0316   0.0000   0.0000   0.0000   0.0000   0.0000   0.0000
     0.0000   0.0000

          k = 0.0000 0.1250 0.1250 ( 18379 PWs)   bands (ev):

   -70.5970 -70.5481 -70.5480 -70.5365 -70.5365 -70.5350 -70.5324 -70.5324
   -70.5324 -70.5324 -70.5305 -70.5284 -70.5284 -70.5257 -70.5256 -70.4845
   -36.7822 -36.7782 -36.7782 -36.7782 -36.7782 -36.7725 -36.6898 -36.6807
   -36.6761 -36.6504 -36.6504 -36.6492 -36.6492 -36.6388 -36.6388 -36.6005
   -36.6005 -36.5990 -36.5990 -36.5763 -36.5763 -36.5618 -36.5618 -36.5531
   -36.5531 -36.5518 -36.5510 -36.5510 -36.5488 -36.5488 -36.5488 -36.5488
   -36.5418 -36.5261 -36.5261 -36.5249 -36.5249 -36.5115 -36.5115 -36.4379
   -36.4335 -36.4290 -36.4290 -36.4290 -36.4290 -36.4286 -36.4239 -36.4234
     9.3109  12.3742  12.3742  12.6881  12.7741  12.7741  12.7741  12.7741
    12.7888  12.8589  12.8618  12.9522  12.9522  13.2734  13.2734  14.1288
    14.1288  14.2021  14.2021  14.2281  14.2281  14.2281  14.2281  14.2405
    14.2994  14.3211  14.3211  14.5023  14.5023  14.5439  14.5440  14.8513
    14.8513  15.1925  15.2314  15.3175  15.3590  15.3590  15.4478  15.4478
    15.5989  15.5989  15.7194  15.7194  15.7403  15.7403  15.8877  15.8877
    16.0143  16.2800  16.2800  16.3083  16.3083  16.3083  16.3083  16.3235
    16.3608  16.3685  16.3877  16.4355  16.4355  16.4355  16.4355  16.5324
    16.5712  16.5712  16.5749  16.5749  16.6021  16.6021  16.7282  16.7282
    17.1270  17.1270  17.2326  17.2326  17.2326  17.2326  17.3533  17.3605
    17.4123  17.5541  17.6470  17.6470  17.6843  17.7924  18.3737  18.3737
    18.5757  18.6080

     occupation numbers 
     1.0000   1.0000   1.0000   1.0000   1.0000   1.0000   1.0000   1.0000
     1.0000   1.0000   1.0000   1.0000   1.0000   1.0000   1.0000   1.0000
     1.0000   1.0000   1.0000   1.0000   1.0000   1.0000   1.0000   1.0000
     1.0000   1.0000   1.0000   1.0000   1.0000   1.0000   1.0000   1.0000
     1.0000   1.0000   1.0000   1.0000   1.0000   1.0000   1.0000   1.0000
     1.0000   1.0000   1.0000   1.0000   1.0000   1.0000   1.0000   1.0000
     1.0000   1.0000   1.0000   1.0000   1.0000   1.0000   1.0000   1.0000
     1.0000   1.0000   1.0000   1.0000   1.0000   1.0000   1.0000   1.0000
     1.0000   1.0000   1.0000   1.0000   1.0000   1.0000   1.0000   1.0000
     1.0000   1.0000   1.0000   1.0000   1.0000   1.0000   1.0000   1.0000
     1.0000   1.0000   1.0000   1.0000   1.0000   1.0000   1.0000   1.0000
     1.0000   1.0000   1.0000   1.0000   1.0000   1.0000   1.0000   1.0000
     1.0000   1.0000   1.0000   1.0000   1.0000   1.0000   1.0000   1.0000
     1.0000   1.0000   1.0000   1.0000   1.0000   1.0000   1.0000   1.0000
     1.0000   1.0000   1.0000   1.0000   1.0000   1.0000   1.0000   1.0000
     1.0000   1.0000   1.0000   1.0000   1.0000   1.0000   1.0000   1.0000
     1.0000   1.0000   1.0000   1.0000   1.0000   1.0000   1.0000   1.0000
     1.0175   1.0175   1.0789   1.0789   1.0789   1.0789   0.8791   0.8470
     0.5745   0.0571   0.0042   0.0042   0.0011   0.0000   0.0000   0.0000
     0.0000   0.0000

          k = 0.0000 0.1250 0.2500 ( 18388 PWs)   bands (ev):

   -70.5933 -70.5593 -70.5469 -70.5376 -70.5361 -70.5360 -70.5329 -70.5329
   -70.5320 -70.5319 -70.5289 -70.5289 -70.5289 -70.5258 -70.5153 -70.4873
   -36.7743 -36.7680 -36.7680 -36.7659 -36.7659 -36.7552 -36.6923 -36.6794
   -36.6755 -36.6755 -36.6730 -36.6680 -36.6647 -36.6638 -36.6638 -36.6326
   -36.6008 -36.5944 -36.5943 -36.5867 -36.5743 -36.5702 -36.5571 -36.5550
   -36.5550 -36.5539 -36.5539 -36.5496 -36.5496 -36.5375 -36.5350 -36.5271
   -36.5243 -36.5243 -36.5037 -36.5037 -36.5024 -36.4881 -36.4875 -36.4552
   -36.4459 -36.4381 -36.4381 -36.4359 -36.4359 -36.4355 -36.4269 -36.4260
     9.5442  11.7162  12.4737  12.6837  12.8367  12.8367  12.8946  12.9308
    12.9308  12.9526  12.9608  13.0171  13.0171  13.3081  13.4088  13.8806
    14.0069  14.0069  14.2043  14.2043  14.2263  14.2263  14.2318  14.3087
    14.3210  14.3210  14.4261  14.4707  14.4707  14.7303  14.7303  14.7848
    15.1061  15.1070  15.1591  15.2256  15.2368  15.2368  15.2491  15.4130
    15.4334  15.5601  15.5848  15.8134  15.8510  15.8510  15.8684  15.8685
    15.9435  15.9684  16.0647  16.1029  16.1059  16.1600  16.1600  16.2386
    16.2850  16.3847  16.3847  16.4009  16.4468  16.4469  16.4529  16.5508
    16.5601  16.5601  16.5751  16.5751  16.7953  16.7953  16.7994  16.7994
    16.8451  16.9438  16.9887  17.1140  17.1278  17.1441  17.2295  17.2904
    17.2904  17.5295  17.5409  17.7496  17.7564  17.7564  18.5010  18.5010
    18.5167  18.9440

     occupation numbers 
     1.0000   1.0000   1.0000   1.0000   1.0000   1.0000   1.0000   1.0000
     1.0000   1.0000   1.0000   1.0000   1.0000   1.0000   1.0000   1.0000
     1.0000   1.0000   1.0000   1.0000   1.0000   1.0000   1.0000   1.0000
     1.0000   1.0000   1.0000   1.0000   1.0000   1.0000   1.0000   1.0000
     1.0000   1.0000   1.0000   1.0000   1.0000   1.0000   1.0000   1.0000
     1.0000   1.0000   1.0000   1.0000   1.0000   1.0000   1.0000   1.0000
     1.0000   1.0000   1.0000   1.0000   1.0000   1.0000   1.0000   1.0000
     1.0000   1.0000   1.0000   1.0000   1.0000   1.0000   1.0000   1.0000
     1.0000   1.0000   1.0000   1.0000   1.0000   1.0000   1.0000   1.0000
     1.0000   1.0000   1.0000   1.0000   1.0000   1.0000   1.0000   1.0000
     1.0000   1.0000   1.0000   1.0000   1.0000   1.0000   1.0000   1.0000
     1.0000   1.0000   1.0000   1.0000   1.0000   1.0000   1.0000   1.0000
     1.0000   1.0000   1.0000   1.0000   1.0000   1.0000   1.0000   1.0000
     1.0000   1.0000   1.0000   1.0000   1.0000   1.0000   1.0000   1.0000
     1.0000   1.0000   1.0000   1.0000   1.0000   1.0000   1.0000   1.0000
     1.0000   1.0000   1.0000   1.0000   1.0000   1.0000   1.0000   1.0000
     1.0000   1.0000   1.0000   1.0000   1.0000   1.0000   1.0000   1.0000
     1.0000   1.0000   1.0003   1.0130   1.0178   1.0249   1.0775   1.0597
     1.0597   0.0983   0.0770   0.0001   0.0001   0.0001   0.0000   0.0000
     0.0000   0.0000

          k = 0.0000 0.1250 0.3750 ( 18359 PWs)   bands (ev):

   -70.5873 -70.5699 -70.5451 -70.5403 -70.5353 -70.5353 -70.5336 -70.5336
   -70.5313 -70.5312 -70.5296 -70.5296 -70.5276 -70.5262 -70.5061 -70.4919
   -36.7586 -36.7516 -36.7516 -36.7466 -36.7466 -36.7308 -36.7093 -36.7037
   -36.7037 -36.6930 -36.6930 -36.6919 -36.6804 -36.6673 -36.6605 -36.6497
   -36.6236 -36.6102 -36.5857 -36.5856 -36.5712 -36.5642 -36.5642 -36.5623
   -36.5533 -36.5532 -36.5508 -36.5507 -36.5384 -36.5339 -36.5286 -36.5080
   -36.4972 -36.4972 -36.4820 -36.4820 -36.4808 -36.4788 -36.4671 -36.4652
   -36.4627 -36.4530 -36.4530 -36.4472 -36.4472 -36.4468 -36.4357 -36.4339
     9.9236  11.0454  12.5872  12.6858  12.9256  12.9256  13.0284  13.0512
    13.0512  13.0954  13.1162  13.1732  13.1732  13.2783  13.3780  13.5845
    13.7765  13.7765  14.1551  14.1551  14.1741  14.1741  14.3920  14.4379
    14.4654  14.4654  14.5428  14.5428  14.6127  14.8421  14.8493  15.0041
    15.0041  15.0256  15.0256  15.1279  15.1313  15.1430  15.1810  15.2126
    15.2216  15.3558  15.3558  15.5363  15.5497  15.6802  15.8020  15.8020
    15.8652  16.0211  16.0340  16.0340  16.0391  16.0880  16.1990  16.2540
    16.3025  16.3025  16.3678  16.3718  16.4660  16.4739  16.4739  16.5384
    16.5384  16.5775  16.5775  16.6305  16.6305  16.6733  16.8378  16.8675
    16.9671  16.9948  16.9948  17.1138  17.1282  17.1415  17.2491  17.2586
    17.2586  17.3461  17.4446  17.6417  17.9277  17.9277  18.3350  18.3350
    18.7153  19.0269

     occupation numbers 
     1.0000   1.0000   1.0000   1.0000   1.0000   1.0000   1.0000   1.0000
     1.0000   1.0000   1.0000   1.0000   1.0000   1.0000   1.0000   1.0000
     1.0000   1.0000   1.0000   1.0000   1.0000   1.0000   1.0000   1.0000
     1.0000   1.0000   1.0000   1.0000   1.0000   1.0000   1.0000   1.0000
     1.0000   1.0000   1.0000   1.0000   1.0000   1.0000   1.0000   1.0000
     1.0000   1.0000   1.0000   1.0000   1.0000   1.0000   1.0000   1.0000
     1.0000   1.0000   1.0000   1.0000   1.0000   1.0000   1.0000   1.0000
     1.0000   1.0000   1.0000   1.0000   1.0000   1.0000   1.0000   1.0000
     1.0000   1.0000   1.0000   1.0000   1.0000   1.0000   1.0000   1.0000
     1.0000   1.0000   1.0000   1.0000   1.0000   1.0000   1.0000   1.0000
     1.0000   1.0000   1.0000   1.0000   1.0000   1.0000   1.0000   1.0000
     1.0000   1.0000   1.0000   1.0000   1.0000   1.0000   1.0000   1.0000
     1.0000   1.0000   1.0000   1.0000   1.0000   1.0000   1.0000   1.0000
     1.0000   1.0000   1.0000   1.0000   1.0000   1.0000   1.0000   1.0000
     1.0000   1.0000   1.0000   1.0000   1.0000   1.0000   1.0000   1.0000
     1.0000   1.0000   1.0000   1.0000   1.0000   1.0000   1.0000   1.0000
     1.0000   1.0000   1.0000   1.0000   1.0000   1.0000   1.0000   1.0000
     1.0001   1.0003   1.0003   1.0129   1.0179   1.0236   1.0832   1.0828
     1.0828   0.9093   0.4019   0.0050   0.0000   0.0000   0.0000   0.0000
     0.0000   0.0000

          k = 0.0000 0.1250-0.5000 ( 18370 PWs)   bands (ev):

   -70.5794 -70.5794 -70.5429 -70.5429 -70.5345 -70.5345 -70.5345 -70.5344
   -70.5304 -70.5304 -70.5304 -70.5304 -70.5267 -70.5267 -70.4982 -70.4982
   -36.7364 -36.7364 -36.7297 -36.7297 -36.7297 -36.7297 -36.7216 -36.7216
   -36.7216 -36.7216 -36.7008 -36.7008 -36.6882 -36.6882 -36.6438 -36.6438
   -36.6314 -36.6314 -36.5750 -36.5750 -36.5750 -36.5750 -36.5671 -36.5671
   -36.5521 -36.5521 -36.5521 -36.5520 -36.5309 -36.5309 -36.5072 -36.5072
   -36.4837 -36.4837 -36.4730 -36.4730 -36.4730 -36.4730 -36.4628 -36.4628
   -36.4628 -36.4628 -36.4620 -36.4620 -36.4493 -36.4493 -36.4471 -36.4471
    10.4329  10.4330  12.6624  12.6624  13.0120  13.0120  13.0120  13.0120
    13.1694  13.1694  13.2528  13.2528  13.3263  13.3263  13.4713  13.4713
    13.4713  13.4713  14.1509  14.1509  14.1509  14.1509  14.6138  14.6138
    14.6138  14.6138  14.6214  14.6214  14.7085  14.7085  14.8516  14.8516
    14.9751  14.9751  14.9751  14.9751  15.0962  15.0963  15.1481  15.1481
    15.2223  15.2223  15.3917  15.3917  15.3917  15.3917  15.6876  15.6876
    15.8906  15.8906  16.1088  16.1088  16.1846  16.1846  16.1846  16.1846
    16.2310  16.2310  16.5075  16.5075  16.5075  16.5075  16.5551  16.5551
    16.5612  16.5612  16.5887  16.5887  16.5887  16.5887  16.6685  16.6685
    17.1082  17.1082  17.1251  17.1251  17.1532  17.1533  17.1533  17.1533
    17.3117  17.3117  17.4720  17.4720  18.1328  18.1328  18.1328  18.1329
    18.9130  18.9130

     occupation numbers 
     1.0000   1.0000   1.0000   1.0000   1.0000   1.0000   1.0000   1.0000
     1.0000   1.0000   1.0000   1.0000   1.0000   1.0000   1.0000   1.0000
     1.0000   1.0000   1.0000   1.0000   1.0000   1.0000   1.0000   1.0000
     1.0000   1.0000   1.0000   1.0000   1.0000   1.0000   1.0000   1.0000
     1.0000   1.0000   1.0000   1.0000   1.0000   1.0000   1.0000   1.0000
     1.0000   1.0000   1.0000   1.0000   1.0000   1.0000   1.0000   1.0000
     1.0000   1.0000   1.0000   1.0000   1.0000   1.0000   1.0000   1.0000
     1.0000   1.0000   1.0000   1.0000   1.0000   1.0000   1.0000   1.0000
     1.0000   1.0000   1.0000   1.0000   1.0000   1.0000   1.0000   1.0000
     1.0000   1.0000   1.0000   1.0000   1.0000   1.0000   1.0000   1.0000
     1.0000   1.0000   1.0000   1.0000   1.0000   1.0000   1.0000   1.0000
     1.0000   1.0000   1.0000   1.0000   1.0000   1.0000   1.0000   1.0000
     1.0000   1.0000   1.0000   1.0000   1.0000   1.0000   1.0000   1.0000
     1.0000   1.0000   1.0000   1.0000   1.0000   1.0000   1.0000   1.0000
     1.0000   1.0000   1.0000   1.0000   1.0000   1.0000   1.0000   1.0000
     1.0000   1.0000   1.0000   1.0000   1.0000   1.0000   1.0000   1.0000
     1.0000   1.0000   1.0000   1.0000   1.0000   1.0000   1.0000   1.0000
     1.0113   1.0113   1.0167   1.0167   1.0296   1.0296   1.0296   1.0296
     1.0201   1.0201   0.2752   0.2752   0.0000   0.0000   0.0000   0.0000
     0.0000   0.0000

          k = 0.0000 0.2500 0.2500 ( 18381 PWs)   bands (ev):

[...]
     0.0000   0.0000

          k =-0.5000-0.5000-0.5000 ( 18336 PWs)   bands (ev):

   -67.8749 -67.8749 -67.8749 -67.8749 -67.8749 -67.8749 -67.8749 -67.8749
   -67.8298 -67.8298 -67.8298 -67.8298 -67.8298 -67.8298 -67.8298 -67.8297
   -34.0879 -34.0879 -34.0879 -34.0879 -34.0879 -34.0879 -34.0879 -34.0879
   -34.0879 -34.0879 -34.0879 -34.0879 -34.0879 -34.0879 -34.0879 -34.0879
   -34.0580 -34.0580 -34.0580 -34.0580 -34.0580 -34.0580 -34.0580 -34.0580
   -33.8741 -33.8741 -33.8741 -33.8741 -33.8741 -33.8741 -33.8741 -33.8741
   -33.8426 -33.8426 -33.8426 -33.8426 -33.8426 -33.8426 -33.8426 -33.8426
   -33.8426 -33.8426 -33.8425 -33.8425 -33.8425 -33.8425 -33.8425 -33.8425
    12.6398  12.6398  12.6398  12.6398  12.6398  12.6398  12.6398  12.6398
    15.7419  15.7419  15.7419  15.7419  15.7419  15.7419  15.7419  15.7419
    15.7419  15.7419  15.7419  15.7419  15.7419  15.7419  15.7419  15.7419
    16.1422  16.1422  16.1422  16.1422  16.1422  16.1422  16.1422  16.1422
    16.2582  16.2582  16.2582  16.2582  16.2582  16.2583  16.2583  16.2583
    16.2583  16.2583  16.2583  16.2583  16.2583  16.2583  16.2583  16.2583
    19.1354  19.1354  19.1354  19.1354  19.1354  19.1354  19.1354  19.1354
    19.1354  19.1354  19.1354  19.1354  19.1354  19.1355  19.1355  19.1355
    19.1448  19.1448  19.1448  19.1448  19.1448  19.1448  19.1448  19.1448
    19.1448  19.1448  19.1448  19.1448  19.1448  19.1448  19.1448  19.1448
    19.4825  19.4825  19.4825  19.4825  19.4825  19.4825  19.4825  19.4825
    25.3670  25.3670

     occupation numbers 
     1.0000   1.0000   1.0000   1.0000   1.0000   1.0000   1.0000   1.0000
     1.0000   1.0000   1.0000   1.0000   1.0000   1.0000   1.0000   1.0000
     1.0000   1.0000   1.0000   1.0000   1.0000   1.0000   1.0000   1.0000
     1.0000   1.0000   1.0000   1.0000   1.0000   1.0000   1.0000   1.0000
     1.0000   1.0000   1.0000   1.0000   1.0000   1.0000   1.0000   1.0000
     1.0000   1.0000   1.0000   1.0000   1.0000   1.0000   1.0000   1.0000
     1.0000   1.0000   1.0000   1.0000   1.0000   1.0000   1.0000   1.0000
     1.0000   1.0000   1.0000   1.0000   1.0000   1.0000   1.0000   1.0000
     1.0000   1.0000   1.0000   1.0000   1.0000   1.0000   1.0000   1.0000
     1.0000   1.0000   1.0000   1.0000   1.0000   1.0000   1.0000   1.0000
     1.0000   1.0000   1.0000   1.0000   1.0000   1.0000   1.0000   1.0000
     1.0000   1.0000   1.0000   1.0000   1.0000   1.0000   1.0000   1.0000
     1.0000   1.0000   1.0000   1.0000   1.0000   1.0000   1.0000   1.0000
     1.0000   1.0000   1.0000   1.0000   1.0000   1.0000   1.0000   1.0000
     0.0000   0.0000   0.0000   0.0000   0.0000   0.0000   0.0000   0.0000
     0.0000   0.0000   0.0000   0.0000   0.0000   0.0000   0.0000   0.0000
     0.0000   0.0000   0.0000   0.0000   0.0000   0.0000   0.0000   0.0000
     0.0000   0.0000   0.0000   0.0000   0.0000   0.0000   0.0000   0.0000
     0.0000   0.0000   0.0000   0.0000   0.0000   0.0000   0.0000   0.0000
     0.0000   0.0000

     the Fermi energy is    17.4449 ev

!    total energy              =   -5268.31150196 Ry
     total all-electron energy =    -40729.056031 Ry
     estimated scf accuracy    <          6.7E-09 Ry
     smearing contrib. (-TS)   =       0.00101649 Ry
     internal energy E=F+TS    =   -5268.31251844 Ry

     The total energy is F=E-TS. E is the sum of the following terms:
     one-electron contribution =   -1809.28404823 Ry
     hartree contribution      =    1059.70514725 Ry
     xc contribution           =    -443.77996834 Ry
     ewald contribution        =   -2750.27871050 Ry
     one-center paw contrib.   =   -1324.67493862 Ry
      -> PAW hartree energy AE =     182.91705524 Ry
      -> PAW hartree energy PS =    -181.61942513 Ry
      -> PAW xc energy AE      =    -110.15562756 Ry
      -> PAW xc energy PS      =      26.06581493 Ry
      -> total E_H with PAW    =    1061.00277735 Ry
      -> total E_XC with PAW   =    -527.86978096 Ry

     total magnetization       =    35.48 Bohr mag/cell
     absolute magnetization    =    37.51 Bohr mag/cell

     convergence has been achieved in  24 iterations

     negative rho (up, down):  0.000E+00 7.843E-04

     Forces acting on atoms (cartesian axes, Ry/au):

     atom    1 type  1   force =     0.00000000    0.00000000    0.00000000
     atom    2 type  1   force =    -0.00000269   -0.00000269   -0.00000269
     atom    3 type  1   force =     0.00000000    0.00000000    0.00000000
     atom    4 type  1   force =    -0.00000269   -0.00000269    0.00000269
     atom    5 type  1   force =     0.00000000    0.00000000    0.00000000
     atom    6 type  1   force =    -0.00000269    0.00000269   -0.00000269
     atom    7 type  1   force =     0.00000000    0.00000000    0.00000000
     atom    8 type  1   force =    -0.00000269    0.00000269    0.00000269
     atom    9 type  1   force =     0.00000000    0.00000000    0.00000000
     atom   10 type  1   force =     0.00000269   -0.00000269   -0.00000269
     atom   11 type  1   force =     0.00000000    0.00000000    0.00000000
     atom   12 type  1   force =     0.00000269   -0.00000269    0.00000269
     atom   13 type  1   force =     0.00000000    0.00000000    0.00000000
     atom   14 type  1   force =     0.00000269    0.00000269   -0.00000269
     atom   15 type  1   force =     0.00000000    0.00000000    0.00000000
     atom   16 type  1   force =     0.00000269    0.00000269    0.00000269
     The non-local contrib.  to forces
     atom    1 type  1   force =     0.00000000    0.00000000    0.00000000
     atom    2 type  1   force =    -0.00002253   -0.00002253   -0.00002253
     atom    3 type  1   force =     0.00000000    0.00000000    0.00000000
     atom    4 type  1   force =    -0.00002253   -0.00002253    0.00002253
     atom    5 type  1   force =     0.00000000    0.00000000    0.00000000
     atom    6 type  1   force =    -0.00002253    0.00002253   -0.00002253
     atom    7 type  1   force =     0.00000000    0.00000000    0.00000000
     atom    8 type  1   force =    -0.00002253    0.00002253    0.00002253
     atom    9 type  1   force =     0.00000000    0.00000000    0.00000000
     atom   10 type  1   force =     0.00002253   -0.00002253   -0.00002253
     atom   11 type  1   force =     0.00000000    0.00000000    0.00000000
     atom   12 type  1   force =     0.00002253   -0.00002253    0.00002253
     atom   13 type  1   force =     0.00000000    0.00000000    0.00000000
     atom   14 type  1   force =     0.00002253    0.00002253   -0.00002253
     atom   15 type  1   force =     0.00000000    0.00000000    0.00000000
     atom   16 type  1   force =     0.00002253    0.00002253    0.00002253
     The ionic contribution  to forces
     atom    1 type  1   force =    -0.00000000   -0.00000000   -0.00000000
     atom    2 type  1   force =    -0.00000000   -0.00000000   -0.00000000
     atom    3 type  1   force =     0.00000000   -0.00000000    0.00000000
     atom    4 type  1   force =    -0.00000000   -0.00000000    0.00000000
     atom    5 type  1   force =    -0.00000000    0.00000000   -0.00000000
     atom    6 type  1   force =    -0.00000000    0.00000000   -0.00000000
     atom    7 type  1   force =     0.00000000    0.00000000    0.00000000
     atom    8 type  1   force =    -0.00000000    0.00000000    0.00000000
     atom    9 type  1   force =    -0.00000000   -0.00000000   -0.00000000
     atom   10 type  1   force =     0.00000000   -0.00000000   -0.00000000
     atom   11 type  1   force =    -0.00000000   -0.00000000    0.00000000
     atom   12 type  1   force =     0.00000000   -0.00000000    0.00000000
     atom   13 type  1   force =    -0.00000000    0.00000000   -0.00000000
     atom   14 type  1   force =     0.00000000    0.00000000   -0.00000000
     atom   15 type  1   force =     0.00000000    0.00000000    0.00000000
     atom   16 type  1   force =     0.00000000    0.00000000    0.00000000
     The local contribution  to forces
     atom    1 type  1   force =     0.00000000    0.00000000    0.00000000
     atom    2 type  1   force =    -0.00007496   -0.00007496   -0.00007496
     atom    3 type  1   force =     0.00000000    0.00000000    0.00000000
     atom    4 type  1   force =    -0.00007496   -0.00007496    0.00007496
     atom    5 type  1   force =     0.00000000    0.00000000    0.00000000
     atom    6 type  1   force =    -0.00007496    0.00007496   -0.00007496
     atom    7 type  1   force =     0.00000000    0.00000000    0.00000000
     atom    8 type  1   force =    -0.00007496    0.00007496    0.00007496
     atom    9 type  1   force =     0.00000000    0.00000000    0.00000000
     atom   10 type  1   force =     0.00007496   -0.00007496   -0.00007496
     atom   11 type  1   force =     0.00000000    0.00000000    0.00000000
     atom   12 type  1   force =     0.00007496   -0.00007496    0.00007496
     atom   13 type  1   force =     0.00000000    0.00000000    0.00000000
     atom   14 type  1   force =     0.00007496    0.00007496   -0.00007496
     atom   15 type  1   force =     0.00000000    0.00000000    0.00000000
     atom   16 type  1   force =     0.00007496    0.00007496    0.00007496
     The core correction contribution to forces
     atom    1 type  1   force =     0.00000000    0.00000000    0.00000000
     atom    2 type  1   force =    -0.00000062   -0.00000062   -0.00000062
     atom    3 type  1   force =     0.00000000    0.00000000    0.00000000
     atom    4 type  1   force =    -0.00000062   -0.00000062    0.00000062
     atom    5 type  1   force =     0.00000000   -0.00000000    0.00000000
     atom    6 type  1   force =    -0.00000062    0.00000062   -0.00000062
     atom    7 type  1   force =     0.00000000   -0.00000000    0.00000000
     atom    8 type  1   force =    -0.00000062    0.00000062    0.00000062
     atom    9 type  1   force =    -0.00000000    0.00000000    0.00000000
     atom   10 type  1   force =     0.00000062   -0.00000062   -0.00000062
     atom   11 type  1   force =    -0.00000000    0.00000000   -0.00000000
     atom   12 type  1   force =     0.00000062   -0.00000062    0.00000062
     atom   13 type  1   force =    -0.00000000   -0.00000000    0.00000000
     atom   14 type  1   force =     0.00000062    0.00000062   -0.00000062
     atom   15 type  1   force =    -0.00000000   -0.00000000    0.00000000
     atom   16 type  1   force =     0.00000062    0.00000062    0.00000062
     The Hubbard contrib.    to forces
     atom    1 type  1   force =     0.00000000    0.00000000    0.00000000
     atom    2 type  1   force =     0.00000000    0.00000000    0.00000000
     atom    3 type  1   force =     0.00000000    0.00000000    0.00000000
     atom    4 type  1   force =     0.00000000    0.00000000    0.00000000
     atom    5 type  1   force =     0.00000000    0.00000000    0.00000000
     atom    6 type  1   force =     0.00000000    0.00000000    0.00000000
     atom    7 type  1   force =     0.00000000    0.00000000    0.00000000
     atom    8 type  1   force =     0.00000000    0.00000000    0.00000000
     atom    9 type  1   force =     0.00000000    0.00000000    0.00000000
     atom   10 type  1   force =     0.00000000    0.00000000    0.00000000
     atom   11 type  1   force =     0.00000000    0.00000000    0.00000000
     atom   12 type  1   force =     0.00000000    0.00000000    0.00000000
     atom   13 type  1   force =     0.00000000    0.00000000    0.00000000
     atom   14 type  1   force =     0.00000000    0.00000000    0.00000000
     atom   15 type  1   force =     0.00000000    0.00000000    0.00000000
     atom   16 type  1   force =     0.00000000    0.00000000    0.00000000
     The SCF correction term to forces
     atom    1 type  1   force =     0.00000000    0.00000000    0.00000000
     atom    2 type  1   force =     0.00009541    0.00009541    0.00009541
     atom    3 type  1   force =    -0.00000000   -0.00000000    0.00000000
     atom    4 type  1   force =     0.00009541    0.00009541   -0.00009541
     atom    5 type  1   force =     0.00000000    0.00000000    0.00000000
     atom    6 type  1   force =     0.00009541   -0.00009541    0.00009541
     atom    7 type  1   force =     0.00000000   -0.00000000    0.00000000
     atom    8 type  1   force =     0.00009541   -0.00009541   -0.00009541
     atom    9 type  1   force =    -0.00000000    0.00000000    0.00000000
     atom   10 type  1   force =    -0.00009541    0.00009541    0.00009541
     atom   11 type  1   force =     0.00000000   -0.00000000    0.00000000
     atom   12 type  1   force =    -0.00009541    0.00009541   -0.00009541
     atom   13 type  1   force =    -0.00000000   -0.00000000    0.00000000
     atom   14 type  1   force =    -0.00009541   -0.00009541    0.00009541
     atom   15 type  1   force =     0.00000000   -0.00000000    0.00000000
     atom   16 type  1   force =    -0.00009541   -0.00009541   -0.00009541

     Total force =     0.000013     Total SCF correction =     0.000467
     SCF correction compared to forces is large: reduce conv_thr to get better values


     Computing stress (Cartesian axis) and pressure


     negative rho (up, down):  0.000E+00 7.843E-04
          total   stress  (Ry/bohr**3)                   (kbar)     P=      -72.81
  -0.00049495   0.00000000   0.00000000          -72.81        0.00        0.00
   0.00000000  -0.00049495   0.00000000            0.00      -72.81        0.00
   0.00000000   0.00000000  -0.00049495            0.00        0.00      -72.81

     kinetic stress (kbar)  95422.09      0.00      0.00
                                0.00  95422.09      0.00
                                0.00      0.00  95422.09

     local   stress (kbar)  12108.99      0.00     -0.00
                                0.00  12108.99      0.00
                               -0.00      0.00  12108.99

     nonloc. stress (kbar) -26161.03      0.00      0.00
                                0.00 -26161.03      0.00
                                0.00      0.00 -26161.03

     hartree stress (kbar)  40796.41      0.00     -0.00
                                0.00  40796.41     -0.00
                               -0.00     -0.00  40796.41

     exc-cor stress (kbar) -13739.51      0.00      0.00
                                0.00 -13739.51     -0.00
                                0.00     -0.00 -13739.51

     corecor stress (kbar)  -2619.83     -0.00      0.00
                               -0.00  -2619.83      0.00
                                0.00      0.00  -2619.83

     ewald   stress (kbar)-105879.93     -0.00      0.00
                               -0.00-105879.93      0.00
                                0.00      0.00-105879.93

     hubbard stress (kbar)      0.00      0.00      0.00
                                0.00      0.00      0.00
                                0.00      0.00      0.00

     DFT-D   stress (kbar)      0.00      0.00      0.00
                                0.00      0.00      0.00
                                0.00      0.00      0.00

     XDM     stress (kbar)      0.00      0.00      0.00
                                0.00      0.00      0.00
                                0.00      0.00      0.00

     dft-nl  stress (kbar)      0.00      0.00      0.00
                                0.00      0.00      0.00
                                0.00      0.00      0.00

     TS-vdW  stress (kbar)      0.00      0.00      0.00
                                0.00      0.00      0.00
                                0.00      0.00      0.00

     MDB     stress (kbar)      0.00      0.00      0.00
                                0.00      0.00      0.00
                                0.00      0.00      0.00

     3D-RISM stress (kbar)      0.00      0.00      0.00
                                0.00      0.00      0.00
                                0.00      0.00      0.00

     Message from routine punch:
     Nothing written, as per user request (disk_io='none')

     init_run     :      6.64s CPU      7.35s WALL (       1 calls)
     electrons    :    359.87s CPU    398.08s WALL (       1 calls)
     forces       :      2.78s CPU      2.98s WALL (       1 calls)
     stress       :     36.51s CPU     37.21s WALL (       1 calls)

     Called by init_run:
     wfcinit      :      4.35s CPU      4.84s WALL (       1 calls)
     wfcinit:atom :      0.04s CPU      0.04s WALL (      18 calls)
     wfcinit:wfcr :      3.91s CPU      4.40s WALL (      18 calls)
     potinit      :      1.06s CPU      1.19s WALL (       1 calls)
     hinit0       :      0.89s CPU      0.93s WALL (       1 calls)

     Called by electrons:
     c_bands      :    296.11s CPU    326.24s WALL (      24 calls)
     sum_band     :     46.52s CPU     52.07s WALL (      24 calls)
     v_of_rho     :      9.29s CPU     10.85s WALL (      25 calls)
     v_h          :      0.14s CPU      0.17s WALL (      25 calls)
     v_xc         :      9.90s CPU     11.55s WALL (      27 calls)
     newd         :      2.68s CPU      3.34s WALL (      25 calls)
     PAW_pot      :      4.70s CPU      4.91s WALL (      25 calls)
     mix_rho      :      0.35s CPU      0.42s WALL (      24 calls)

     Called by c_bands:
     init_us_2    :      5.82s CPU      5.91s WALL (     918 calls)
     cegterg      :    264.01s CPU    290.10s WALL (     432 calls)

     Called by sum_band:
     sum_band:wei :      0.08s CPU      0.08s WALL (      24 calls)
     sum_band:loo :     41.22s CPU     45.85s WALL (      24 calls)
     sum_band:buf :      0.59s CPU      0.66s WALL (     432 calls)
     sum_band:ini :      1.53s CPU      1.54s WALL (     432 calls)
     sum_band:cal :      8.51s CPU      8.86s WALL (     432 calls)
     sum_band:bec :      0.14s CPU      0.15s WALL (     432 calls)
     addusdens    :      4.42s CPU      5.08s WALL (      24 calls)
                                        0.00s GPU  (      24 calls)
     addusd:skk   :      0.05s CPU      0.05s WALL (      24 calls)
                                        0.00s GPU  (      24 calls)

     Called by *egterg:
     cdiaghg      :     20.71s CPU     22.69s WALL (    1704 calls)
     cegterg:over :     23.32s CPU     24.04s WALL (    1272 calls)
     cegterg:upda :     15.30s CPU     15.84s WALL (    1272 calls)
     cegterg:last :     26.87s CPU     27.70s WALL (     729 calls)
     cdiaghg:chol :      1.35s CPU      1.53s WALL (    1704 calls)
     cdiaghg:inve :      0.35s CPU      0.37s WALL (    1704 calls)
     cdiaghg:para :      4.88s CPU      5.77s WALL (    3408 calls)
     h_psi        :    150.20s CPU    169.60s WALL (    1722 calls)
     s_psi        :     19.08s CPU     19.27s WALL (    1722 calls)
     g_psi        :      0.71s CPU      0.73s WALL (    1272 calls)

     Called by h_psi:
     h_psi:calbec :     20.04s CPU     20.82s WALL (    1722 calls)
     vloc_psi     :    109.79s CPU    126.26s WALL (    1722 calls)
     add_vuspsi   :     18.91s CPU     19.08s WALL (    1722 calls)

     General routines
     calbec       :     30.53s CPU     31.77s WALL (    2244 calls)
     fft          :      4.52s CPU      5.45s WALL (     663 calls)
     ffts         :      0.54s CPU      0.56s WALL (      98 calls)
     fftw         :    106.53s CPU    122.77s WALL (  366608 calls)
     interpolate  :      0.82s CPU      0.88s WALL (      50 calls)

     Parallel routines

     PAW routines
     PAW_pot      :      4.70s CPU      4.91s WALL (      25 calls)
     PAW_symme    :      0.04s CPU      0.04s WALL (      49 calls)

     PWSCF        :    406.07s CPU    446.16s WALL


   This run was terminated on:  11:24:57  24May2025            

=------------------------------------------------------------------------------=
   JOB DONE.
=------------------------------------------------------------------------------=
