
     Program PWSCF v.7.3.1 starts on 24Apr2025 at 19:48: 3 

     This program is part of the open-source Quantum ESPRESSO suite
     for quantum simulation of materials; please cite
         "P. Giannozzi et al., J. Phys.:Condens. Matter 21 395502 (2009);
         "P. Giannozzi et al., J. Phys.:Condens. Matter 29 465901 (2017);
         "P. Giannozzi et al., J. Chem. Phys. 152 154105 (2020);
          URL http://www.quantum-espresso.org", 
     in publications or presentations arising from this work. More details at
     http://www.quantum-espresso.org/quote

     Parallel version (MPI & OpenMP), running on      32 processor cores
     Number of MPI processes:                 8
     Threads/MPI process:                     4

     MPI processes distributed on     1 nodes
     436713 MiB available memory on the printing compute node when the environment starts

     Waiting for input...
     Reading input from standard input

     Current dimensions of program PWSCF are:
     Max number of different atomic species (ntypx) = 10
     Max number of k-points (npk) =  40000
     Max angular momentum in pseudopotentials (lmaxx) =  4
     file Fe.pbe-spn-kjpaw_psl.1.0.0.UPF: wavefunction(s)  3P 3D renormalized

     R & G space division:  proc/nbgrp/npool/nimage =       8
     Subspace diagonalization in iterative solution of the eigenvalue problem:
     a serial algorithm will be used


     Parallelization info
     --------------------
     sticks:   dense  smooth     PW     G-vecs:    dense   smooth      PW
     Min          74      36     12                 1147      393      83
     Max          75      37     13                 1149      395      86
     Sum         599     291     99                 9189     3151     675

     Using Slab Decomposition



     bravais-lattice index     =            3
     lattice parameter (alat)  =       5.4200  a.u.
     unit-cell volume          =      79.6100 (a.u.)^3
     number of atoms/cell      =            1
     number of atomic types    =            1
     number of electrons       =        16.00
     number of Kohn-Sham states=           12
     kinetic-energy cutoff     =      45.0000  Ry
     charge density cutoff     =     360.0000  Ry
     scf convergence threshold =      1.0E-06
     mixing beta               =       0.3000
     number of iterations used =            8  local-TF  mixing
     Exchange-correlation= SLA  PW   PBX  PBC
                           (   1   4   3   4   0   0   0)

     celldm(1)=   5.420000  celldm(2)=   0.000000  celldm(3)=   0.000000
     celldm(4)=   0.000000  celldm(5)=   0.000000  celldm(6)=   0.000000

     crystal axes: (cart. coord. in units of alat)
               a(1) = (   0.500000   0.500000   0.500000 )  
               a(2) = (  -0.500000   0.500000   0.500000 )  
               a(3) = (  -0.500000  -0.500000   0.500000 )  

     reciprocal axes: (cart. coord. in units 2 pi/alat)
               b(1) = (  1.000000  0.000000  1.000000 )  
               b(2) = ( -1.000000  1.000000  0.000000 )  
               b(3) = (  0.000000 -1.000000  1.000000 )  


     PseudoPot. # 1 for Fe read from file:
     ../../pseudopotentials/Fe.pbe-spn-kjpaw_psl.1.0.0.UPF
     MD5 check sum: fc81f059e5c5069939230b1155715ae8
     Pseudo is Projector augmented-wave + core cor, Zval = 16.0
     Generated using &quot;atomic&quot; code by A. Dal Corso  v.6.3
     Shape of augmentation charge: PSQ
     Using radial grid of 1191 points,  6 beta functions with: 
                l(1) =   0
                l(2) =   0
                l(3) =   1
                l(4) =   1
                l(5) =   2
                l(6) =   2
     Q(r) pseudized with 0 coefficients 


     atomic species   valence    mass     pseudopotential
     Fe               16.00    55.84500     Fe( 1.00)

     48 Sym. Ops., with inversion, found



   Cartesian axes

     site n.     atom                  positions (alat units)
         1        Fe     tau(   1) = (   0.0000000   0.0000000   0.0000000  )

     number of k points=    29  Marzari-Vanderbilt smearing, width (Ry)=  0.0200
                       cart. coord. in units 2pi/alat
        k(    1) = (   0.0000000   0.0000000   0.0000000), wk =   0.0039062
        k(    2) = (   0.0000000  -0.1250000   0.1250000), wk =   0.0468750
        k(    3) = (   0.0000000  -0.2500000   0.2500000), wk =   0.0468750
        k(    4) = (   0.0000000  -0.3750000   0.3750000), wk =   0.0468750
        k(    5) = (   0.0000000   0.5000000  -0.5000000), wk =   0.0234375
        k(    6) = (  -0.1250000  -0.1250000   0.2500000), wk =   0.0937500
        k(    7) = (  -0.1250000  -0.2500000   0.3750000), wk =   0.1875000
        k(    8) = (  -0.1250000   0.6250000  -0.5000000), wk =   0.1875000
        k(    9) = (  -0.2500000   0.7500000  -0.5000000), wk =   0.0937500
        k(   10) = (  -0.2500000   0.6250000  -0.3750000), wk =   0.0937500
        k(   11) = (   0.0000000   0.0000000   0.2500000), wk =   0.0234375
        k(   12) = (   0.0000000  -0.1250000   0.3750000), wk =   0.0937500
        k(   13) = (   0.0000000  -0.2500000   0.5000000), wk =   0.0937500
        k(   14) = (   0.0000000   0.6250000  -0.3750000), wk =   0.0468750
        k(   15) = (  -0.1250000  -0.1250000   0.5000000), wk =   0.0937500
        k(   16) = (  -0.1250000   0.7500000  -0.3750000), wk =   0.1875000
        k(   17) = (  -0.2500000   0.2500000   0.2500000), wk =   0.0312500
        k(   18) = (  -0.2500000   0.7500000  -0.2500000), wk =   0.0312500
        k(   19) = (   0.6250000  -0.6250000   0.2500000), wk =   0.0937500
        k(   20) = (   0.5000000  -0.5000000   0.2500000), wk =   0.0468750
        k(   21) = (   0.5000000  -0.6250000   0.3750000), wk =   0.0937500
        k(   22) = (   0.0000000   0.0000000   0.5000000), wk =   0.0234375
        k(   23) = (   0.0000000  -0.1250000   0.6250000), wk =   0.0937500
        k(   24) = (   0.0000000   0.7500000  -0.2500000), wk =   0.0468750
        k(   25) = (  -0.1250000   0.8750000  -0.2500000), wk =   0.0937500
        k(   26) = (   0.5000000  -0.5000000   0.5000000), wk =   0.0078125
        k(   27) = (   0.0000000   0.0000000   0.7500000), wk =   0.0234375
        k(   28) = (   0.0000000   0.8750000  -0.1250000), wk =   0.0468750
        k(   29) = (   0.0000000   0.0000000  -1.0000000), wk =   0.0039062

     Dense  grid:     9189 G-vectors     FFT dimensions: (  30,  30,  30)

     Smooth grid:     3151 G-vectors     FFT dimensions: (  20,  20,  20)

     Estimated max dynamical RAM per process >       6.05 MB

     Estimated total dynamical RAM >      48.44 MB

     Check: negative core charge=   -0.000004

     Initial potential from superposition of free atoms

     starting charge      15.9996, renormalised to      16.0000
     Starting wfcs are   10 randomized atomic wfcs +    2 random wfcs
     Checking if some PAW data can be deallocated... 

     total cpu time spent up to now is      161.7 secs

     per-process dynamical memory:   185.1 Mb

     Self-consistent Calculation

     iteration #  1     ecut=    45.00 Ry     beta= 0.30
     Davidson diagonalization with overlap
     ethr =  1.00E-02,  avg # of iterations =  3.4

     Threshold (ethr) on eigenvalues was too large:
     Diagonalizing with lowered threshold

     Davidson diagonalization with overlap
     ethr =  2.82E-04,  avg # of iterations =  1.4

     total cpu time spent up to now is      989.8 secs

     total energy              =    -329.16180040 Ry
     estimated scf accuracy    <       0.04690306 Ry

     iteration #  2     ecut=    45.00 Ry     beta= 0.30
     Davidson diagonalization with overlap
     ethr =  2.93E-04,  avg # of iterations =  1.0

     total cpu time spent up to now is     1343.9 secs

     total energy              =    -329.16219130 Ry
     estimated scf accuracy    <       0.00817687 Ry

     iteration #  3     ecut=    45.00 Ry     beta= 0.30
     Davidson diagonalization with overlap
     ethr =  5.11E-05,  avg # of iterations =  2.1

     total cpu time spent up to now is     1762.3 secs

     total energy              =    -329.16358289 Ry
     estimated scf accuracy    <       0.00025420 Ry

     iteration #  4     ecut=    45.00 Ry     beta= 0.30
     Davidson diagonalization with overlap
     ethr =  1.59E-06,  avg # of iterations =  2.5

     total cpu time spent up to now is     2184.2 secs

     total energy              =    -329.16360499 Ry
     estimated scf accuracy    <       0.00000206 Ry

     iteration #  5     ecut=    45.00 Ry     beta= 0.30
     Davidson diagonalization with overlap
     ethr =  1.29E-08,  avg # of iterations =  2.2

     total cpu time spent up to now is     2646.4 secs

     total energy              =    -329.16360770 Ry
     estimated scf accuracy    <       0.00000104 Ry

     iteration #  6     ecut=    45.00 Ry     beta= 0.30
     Davidson diagonalization with overlap
     ethr =  6.47E-09,  avg # of iterations =  2.0

     total cpu time spent up to now is     3061.0 secs

     End of self-consistent calculation

          k = 0.0000 0.0000 0.0000 (   381 PWs)   bands (ev):

   -69.6146 -35.4087 -35.4087 -35.4087   9.2369  16.1290  16.1290  16.1290
    17.5678  17.5678  41.5269  41.5269

          k = 0.0000-0.1250 0.1250 (   396 PWs)   bands (ev):

   -69.6047 -35.4765 -35.4385 -35.4120   9.8526  15.9297  16.0640  16.4038
    17.3999  17.5646  38.4494  40.5905

          k = 0.0000-0.2500 0.2500 (   398 PWs)   bands (ev):

   -69.5802 -35.6056 -35.4833 -35.4132  11.4965  15.5346  15.8834  17.2705
    17.3162  17.6386  33.0111  38.0690

          k = 0.0000-0.3750 0.3750 (   406 PWs)   bands (ev):

   -69.5557 -35.7456 -35.5299 -35.4137  13.0216  15.1485  16.4971  17.4853
    17.7101  18.2477  27.7875  36.0065

          k = 0.0000 0.5000-0.5000 (   392 PWs)   bands (ev):

   -69.5453 -35.7862 -35.5402 -35.4038  13.3241  15.0059  17.5688  17.7923
    17.9378  18.7460  25.0491  35.2511

          k =-0.1250-0.1250 0.2500 (   399 PWs)   bands (ev):

   -69.5874 -35.5696 -35.4567 -35.4278  11.0046  15.7300  15.7561  17.0856
    17.2367  17.6643  35.5928  36.7281

          k =-0.1250-0.2500 0.3750 (   404 PWs)   bands (ev):

   -69.5629 -35.6863 -35.5134 -35.4337  12.7744  15.2976  15.6220  17.2936
    17.7740  18.2828  30.5364  34.1624

          k =-0.1250 0.6250-0.5000 (   407 PWs)   bands (ev):

   -69.5455 -35.7686 -35.5598 -35.4326  13.5755  15.0521  16.3485  17.4867
    17.9597  19.7732  25.9735  32.8907

          k =-0.2500 0.7500-0.5000 (   406 PWs)   bands (ev):

   -69.5455 -35.7297 -35.5764 -35.4527  14.0614  14.9973  15.5044  17.4106
    17.8673  20.2822  28.4592  29.2587

          k =-0.2500 0.6250-0.3750 (   404 PWs)   bands (ev):

   -69.5383 -35.7247 -35.6212 -35.4577  14.3448  15.0363  15.5438  17.5813
    17.8725  22.6037  25.2097  28.3230

          k = 0.0000 0.0000 0.2500 (   398 PWs)   bands (ev):

   -69.5950 -35.4877 -35.4560 -35.4560  10.4468  16.0909  16.0909  16.4278
    16.9634  17.7728  37.7442  39.6645

          k = 0.0000-0.1250 0.3750 (   402 PWs)   bands (ev):

   -69.5714 -35.6012 -35.5054 -35.4613  11.9999  15.8290  15.8569  16.7849
    17.1984  18.0049  33.4350  37.0811

          k = 0.0000-0.2500 0.5000 (   407 PWs)   bands (ev):

   -69.5479 -35.7304 -35.5536 -35.4570  13.4187  15.4811  15.7141  17.1835
    18.2044  18.7017  28.1415  35.2562

          k = 0.0000 0.6250-0.3750 (   410 PWs)   bands (ev):

   -69.5380 -35.7821 -35.5720 -35.4563  13.6691  15.3495  16.0028  17.2255
    18.6743  20.1373  25.0897  34.4111

          k =-0.1250-0.1250 0.5000 (   404 PWs)   bands (ev):

   -69.5488 -35.6828 -35.5582 -35.4855  13.4508  15.2663  15.9409  16.8540
    17.8357  18.8342  31.1004  31.7223

          k =-0.1250 0.7500-0.3750 (   413 PWs)   bands (ev):

   -69.5328 -35.7452 -35.6118 -35.4928  14.1710  15.1101  15.6539  17.2001
    18.2193  21.1715  26.4645  30.1409

          k =-0.2500 0.2500 0.2500 (   411 PWs)   bands (ev):

   -69.5692 -35.6691 -35.4677 -35.4677  12.4972  15.2693  15.2693  17.5471
    17.5471  18.2982  33.2784  33.2784

          k =-0.2500 0.7500-0.2500 (   400 PWs)   bands (ev):

   -69.5263 -35.6871 -35.6871 -35.4911  14.8327  14.8327  15.2712  17.8175
    17.8175  24.6872  24.6872  26.9225

          k = 0.6250-0.6250 0.2500 (   403 PWs)   bands (ev):

   -69.5508 -35.7250 -35.5300 -35.4658  13.9389  14.9691  15.3545  17.6186
    17.7496  20.0335  28.4207  31.7346

          k = 0.5000-0.5000 0.2500 (   406 PWs)   bands (ev):

   -69.5432 -35.7402 -35.5710 -35.4670  14.0708  14.8642  16.0126  17.6787
    17.7913  21.7781  25.2005  31.1878

          k = 0.5000-0.6250 0.3750 (   405 PWs)   bands (ev):

   -69.5422 -35.6922 -35.5912 -35.5000  14.5913  14.9494  15.2653  17.7454
    17.7885  22.7704  26.7359  27.8049

          k = 0.0000 0.0000 0.5000 (   410 PWs)   bands (ev):

   -69.5502 -35.6185 -35.5545 -35.5545  13.1818  15.5396  16.4370  16.4370
    17.2483  18.5799  34.2205  34.2209

          k = 0.0000-0.1250 0.6250 (   418 PWs)   bands (ev):

   -69.5289 -35.7075 -35.6038 -35.5684  14.0448  14.8216  16.4535  16.9008
    18.0704  20.2171  29.1530  31.9227

          k = 0.0000 0.7500-0.2500 (   414 PWs)   bands (ev):

   -69.5200 -35.7427 -35.6243 -35.5618  14.1679  14.6889  16.3814  17.0179
    18.5832  22.7679  25.4270  31.0025

          k =-0.1250 0.8750-0.2500 (   408 PWs)   bands (ev):

   -69.5146 -35.7087 -35.6615 -35.5804  14.2735  14.3378  16.4999  17.6383
    18.3001  23.1995  27.3723  28.0227

          k = 0.5000-0.5000 0.5000 (   420 PWs)   bands (ev):

   -69.5411 -35.6073 -35.6073 -35.6073  14.9537  14.9537  14.9537  17.7797
    17.7797  26.1260  26.1260  26.1260

          k = 0.0000 0.0000 0.7500 (   402 PWs)   bands (ev):

   -69.5096 -35.6808 -35.6432 -35.6432  13.9949  14.1970  17.5719  17.5719
    18.1289  22.4511  29.3565  29.3565

          k = 0.0000 0.8750-0.1250 (   402 PWs)   bands (ev):

   -69.5017 -35.7004 -35.6638 -35.6495  13.8849  13.9121  17.7749  17.9106
    18.5271  25.4914  26.3086  28.2938

          k = 0.0000 0.0000-1.0000 (   418 PWs)   bands (ev):

   -69.4944 -35.6947 -35.6947 -35.6947  13.6254  13.6254  18.4485  18.4485
    18.4485  27.1313  27.1313  27.1313

     the Fermi energy is    17.6112 ev

!    total energy              =    -329.16360846 Ry
     total all-electron energy =     -2545.460142 Ry
     estimated scf accuracy    <       0.00000011 Ry
     smearing contrib. (-TS)   =      -0.00134722 Ry
     internal energy E=F+TS    =    -329.16226125 Ry

     The total energy is F=E-TS. E is the sum of the following terms:
     one-electron contribution =    -112.88069410 Ry
     hartree contribution      =      65.96904097 Ry
     xc contribution           =     -27.57951774 Ry
     ewald contribution        =    -171.88999319 Ry
     one-center paw contrib.   =     -82.78109718 Ry

     convergence has been achieved in   6 iterations

     Forces acting on atoms (cartesian axes, Ry/au):

     atom    1 type  1   force =     0.00000000    0.00000000    0.00000000

     Total force =     0.000000     Total SCF correction =     0.000000


     Computing stress (Cartesian axis) and pressure

          total   stress  (Ry/bohr**3)                   (kbar)     P=    -1128.93
  -0.00767428  -0.00000000   0.00000000        -1128.93       -0.00        0.00
  -0.00000000  -0.00767428  -0.00000000           -0.00    -1128.93       -0.00
   0.00000000  -0.00000000  -0.00767428            0.00       -0.00    -1128.93


     Writing all to output data dir ./tmp/fe_bcc_nm.save/ :
     XML data file, charge density, pseudopotentials, collected wavefunctions

     init_run     :    151.15s CPU    159.04s WALL (       1 calls)
     electrons    :   2921.24s CPU   2900.01s WALL (       1 calls)
     forces       :     47.36s CPU     51.43s WALL (       1 calls)
     stress       :     69.85s CPU     70.45s WALL (       1 calls)

     Called by init_run:
     wfcinit      :    129.73s CPU    131.90s WALL (       1 calls)
     potinit      :     11.89s CPU     11.41s WALL (       1 calls)
     hinit0       :      7.60s CPU     12.52s WALL (       1 calls)

     Called by electrons:
     c_bands      :   2444.52s CPU   2393.39s WALL (       7 calls)
     sum_band     :    426.55s CPU    451.24s WALL (       7 calls)
     v_of_rho     :      6.77s CPU      7.26s WALL (       7 calls)
     newd         :      3.33s CPU      4.92s WALL (       7 calls)
     PAW_pot      :      7.76s CPU      8.96s WALL (       7 calls)
     mix_rho      :     34.71s CPU     37.43s WALL (       7 calls)

     Called by c_bands:
     init_us_2    :     16.11s CPU     16.55s WALL (     493 calls)
     cegterg      :   2424.14s CPU   2371.72s WALL (     203 calls)

     Called by *egterg:
     cdiaghg      :    666.50s CPU    487.25s WALL (     599 calls)
     h_psi        :   1787.23s CPU   1906.31s WALL (     657 calls)
     s_psi        :      0.01s CPU      0.01s WALL (     657 calls)
     g_psi        :     14.44s CPU     14.01s WALL (     425 calls)

     Called by h_psi:
     h_psi:calbec :     19.80s CPU     23.99s WALL (     657 calls)
     vloc_psi     :   1745.13s CPU   1859.41s WALL (     657 calls)
     add_vuspsi   :      0.01s CPU      0.01s WALL (     657 calls)

     General routines
     calbec       :     33.31s CPU     40.65s WALL (    1005 calls)
     fft          :     11.53s CPU     13.62s WALL (     115 calls)
     ffts         :     19.56s CPU     19.32s WALL (     111 calls)
     fftw         :   1375.18s CPU   1492.95s WALL (   14398 calls)
     interpolate  :     10.43s CPU      9.71s WALL (       7 calls)

     Parallel routines

     PWSCF        :   3197.57s CPU   3190.90s WALL


   This run was terminated on:  20:41:14  24Apr2025            

=------------------------------------------------------------------------------=
   JOB DONE.
=------------------------------------------------------------------------------=
